chemcompute.org
{'UTCtimestamp': '2022-10-30T22:09:15.179935', 'cluster': 'jetstream2', 'clusterJobNumber': '141482', 'status': 'RUNNING', 'nodeList': 'chemcompute-node-0'}
----- GAMESS execution script 'rungms' -----
This job is running on host chemcompute-node-0.novalocal
under operating system Linux at Sun Oct 30 22:09:18 UTC 2022
SLURM has assigned the following compute nodes to this run:
Available scratch disk space (Kbyte units) at beginning of the job is
Filesystem     1K-blocks     Used Available Use% Mounted on
/dev/sda1       62903276 11479404  51423872  19% /
GAMESS temporary binary files will be written to /scratch/141482
GAMESS supplementary output files will be written to /data/slurm/48/483536
Copying input file 483536.inp to your run's scratch directory...
The generated host list is
chemcompute-node-0.novalocal

 Distributed Data Interface kickoff program.
 Initiating 1 compute processes on 1 nodes to run the following command:
 /data/gamess-2019R1-avx2-ddi/gamess.00.x 483536 

          ******************************************************
          *         GAMESS VERSION = 30 JUN 2019 (R1)          *
          *             FROM IOWA STATE UNIVERSITY             *
          * M.W.SCHMIDT, K.K.BALDRIDGE, J.A.BOATZ, S.T.ELBERT, *
          *   M.S.GORDON, J.H.JENSEN, S.KOSEKI, N.MATSUNAGA,   *
          *          K.A.NGUYEN, S.J.SU, T.L.WINDUS,           *
          *       TOGETHER WITH M.DUPUIS, J.A.MONTGOMERY       *
          *         J.COMPUT.CHEM.  14, 1347-1363(1993)        *
          **************** 64 BIT INTEL VERSION ****************

  SINCE 1993, STUDENTS AND POSTDOCS WORKING AT IOWA STATE UNIVERSITY
  AND ALSO IN THEIR VARIOUS JOBS AFTER LEAVING ISU HAVE MADE IMPORTANT
  CONTRIBUTIONS TO THE CODE:
     IVANA ADAMOVIC, CHRISTINE AIKENS, YURI ALEXEEV, POOJA ARORA,
     ANDREY ASADCHEV, ROB BELL, PRADIPTA BANDYOPADHYAY, JONATHAN BENTZ,
     COLLEEN BERTONI, BRETT BODE, KURT BRORSEN, CALEB CARLIN, GALINA CHABAN,
     WEI CHEN, CHEOL HO CHOI, PAUL DAY, ALBERT DEFUSCO, NUWAN DESILVA,
     TIM DUDLEY, DMITRI FEDOROV, ALEX FINDLATER, GRAHAM FLETCHER, 
     MARK FREITAG, KURT GLAESEMANN, ANASTASIA GUNINA,
     DAN KEMP, GRANT MERRILL, NORIYUKI MINEZAWA, JONATHAN MULLIN,
     TAKESHI NAGATA, SEAN NEDD, HEATHER NETZLOFF, BOSILJKA NJEGIC, RYAN OLSON,
     MIKE PAK, BUU PHAM,
     SPENCER PRUITT, LUKE ROSKOP, JIM SHOEMAKER, LYUDMILA SLIPCHENKO,
     TONY SMITH, SAROM SOK LEANG, JIE SONG, TETSUYA TAKETSUGU, SIMON WEBB,
     PENG XU, SOOHAENG YOO, FEDERICO ZAHARIEV

  ADDITIONAL CODE HAS BEEN PROVIDED BY COLLABORATORS IN OTHER GROUPS:
     IOWA STATE UNIVERSITY:
          JOE IVANIC, AARON WEST, LAIMUTIS BYTAUTAS, KLAUS RUEDENBERG
     UNIVERSITY OF TOKYO: KIMIHIKO HIRAO, TAKAHITO NAKAJIMA,
          TAKAO TSUNEDA, MUNEAKI KAMIYA, SUSUMU YANAGISAWA,
          KIYOSHI YAGI, MAHITO CHIBA, SEIKEN TOKURA, NAOAKI KAWAKAMI
     UNIVERSITY OF AARHUS: FRANK JENSEN
     UNIVERSITY OF IOWA: VISVALDAS KAIRYS, HUI LI
     NATIONAL INST. OF STANDARDS AND TECHNOLOGY: WALT STEVENS, DAVID GARMER
     UNIVERSITY OF PISA: BENEDETTA MENNUCCI, JACOPO TOMASI
     UNIVERSITY OF MEMPHIS: HENRY KURTZ, PRAKASHAN KORAMBATH
     UNIVERSITY OF ALBERTA: TOBY ZENG, MARIUSZ KLOBUKOWSKI
     UNIVERSITY OF NEW ENGLAND: MARK SPACKMAN
     MIE UNIVERSITY: HIROAKI UMEDA
     NAT. INST. OF ADVANCED INDUSTRIAL SCIENCE AND TECHNOLOGY: KAZUO KITAURA
     MICHIGAN STATE UNIVERSITY:
          KAROL KOWALSKI, MARTA WLOCH, JEFFREY GOUR, JESSE LUTZ,
          WEI LI, JUN SHEN, J. EMILIANO DEUSTUA, PIOTR PIECUCH
     UNIVERSITY OF MINNESOTA:
          YINAN SHU
     UNIVERSITY OF SILESIA: MONIKA MUSIAL, STANISLAW KUCHARSKI
     FACULTES UNIVERSITAIRES NOTRE-DAME DE LA PAIX:
          OLIVIER QUINET, BENOIT CHAMPAGNE
     UNIVERSITY OF CALIFORNIA - SANTA BARBARA: BERNARD KIRTMAN
     INSTITUTE FOR MOLECULAR SCIENCE:
          KAZUYA ISHIMURA, MICHIO KATOUDA, AND SHIGERU NAGASE
     UNIVERSITY OF NOTRE DAME: ANNA POMOGAEVA, DAN CHIPMAN
     KYUSHU UNIVERSITY:
          HARUYUKI NAKANO,
          FENG LONG GU, JACEK KORCHOWIEC, MARCIN MAKOWSKI, AND YURIKO AOKI,
          HIROTOSHI MORI AND EISAKU MIYOSHI
     PENNSYLVANIA STATE UNIVERSITY:
          TZVETELIN IORDANOV, CHET SWALINA, JONATHAN SKONE,
          SHARON HAMMES-SCHIFFER
     WASEDA UNIVERSITY:
          MASATO KOBAYASHI, TOMOKO AKAMA, TSUGUKI TOUMA,
          TAKESHI YOSHIKAWA, YASUHIRO IKABATA, JUNJI SEINO,
          YUYA NAKAJIMA, HIROMI NAKAI
     NANJING UNIVERSITY: SHUHUA LI
     UNIVERSITY OF NEBRASKA:
          PEIFENG SU, DEJUN SI, NANDUN THELLAMUREGE, YALI WANG, HUI LI
     UNIVERSITY OF ZURICH: ROBERTO PEVERATI, KIM BALDRIDGE
     N. COPERNICUS UNIVERSITY AND JACKSON STATE UNIVERSITY:
          MARIA BARYSZ
     UNIVERSITY OF COPENHAGEN: Jimmy Kromann, CASPER STEINMANN
     TOKYO INSTITUTE OF TECHNOLOGY: HIROYA NAKATA
     NAGOYA UNIVERSITY: YOSHIO NISHIMOTO, STEPHAN IRLE
     MOSCOW STATE UNIVERSITY: VLADIMIR MIRONOV
     A.N.NESMEYANOV INSTITUTE OF ORGANOELEMENT COMPOUNDS OF RUSSIAN ACADEMY OF SCIENCES:
          IGOR S. GERASIMOV

 EXECUTION OF GAMESS BEGUN Sun Oct 30 22:09:18 2022

            ECHO OF THE FIRST FEW INPUT CARDS -
 INPUT CARD>!                                                                               
 INPUT CARD>!   GAMESS Calculation input file                                               
 INPUT CARD>!   Molecula propileno                                                          
 INPUT CARD>!                                                                               
 INPUT CARD> $CONTRL SCFTYP=RHF MAXIT=200 RUNTYP=OPTIMIZE                                   
 INPUT CARD>         COORD=UNIQUE MULT=1                                                    
 INPUT CARD>         ICHARG=0                                                               
 INPUT CARD>         DFTTYP=B3LYP                                                           
 INPUT CARD>         MOLPLT=.FALSE. PLTORB=.FALSE.  $END                                    
 INPUT CARD> $SYSTEM TIMLIM=2879 MWORDS=250  $END                                           
 INPUT CARD>                                                                                
 INPUT CARD> $FORCE METHOD=SEMINUM NVIB=2 $END                                              
 INPUT CARD> $STATPT OPTTOL=0.0005 NSTEP=999 $END                                           
 INPUT CARD> $STATPT IHREP=0 HSSEND=.TRUE.  $END                                            
 INPUT CARD>                                                                                
 INPUT CARD> $DFT    METHOD=GRID  NLEB=590  $END                                            
 INPUT CARD>                                                                                
 INPUT CARD> $BASIS  GBASIS=N31 NGAUSS=6                                                    
 INPUT CARD>         NDFUNC=1   NPFUNC=0  $END                                              
 INPUT CARD>                                                                                
 INPUT CARD> $SCF    DIRSCF=.T. $END                                                        
 INPUT CARD> $GUESS  GUESS=HUCKEL  $END                                                     
 INPUT CARD>                                                                                
 INPUT CARD> $DATA                                                                          
 INPUT CARD>   Molecula propileno                                                           
 INPUT CARD>  Cs                                                                            
 INPUT CARD>                                                                                
 INPUT CARD>C     6.0    -1.14    -0.54     0.00                                            
 INPUT CARD>C     6.0     0.19    -0.43     0.00                                            
 INPUT CARD>C     6.0     0.90     0.88    -0.00                                            
 INPUT CARD>H     1.0    -1.78     0.34     0.00                                            
 INPUT CARD>H     1.0    -1.63    -1.51     0.00                                            
 INPUT CARD>H     1.0     0.80    -1.33     0.00                                            
 INPUT CARD>H     1.0     0.65     1.46     0.89                                            
 INPUT CARD>H     1.0     1.98     0.72    -0.00                                            
 INPUT CARD> $END                                                                           
 INPUT CARD>                                                                                
 INPUT CARD>                                                                                
 INPUT CARD>! Customizations after this line are persisted when using Do More Calculations  
  250000000 WORDS OF MEMORY AVAILABLE

     BASIS OPTIONS
     -------------
     GBASIS=N31          IGAUSS=       6      POLAR=POPN31  
     NDFUNC=       1     NFFUNC=       0     DIFFSP=       F
     NPFUNC=       0      DIFFS=       F     BASNAM=        


     RUN TITLE
     ---------
    Molecula propileno                                                           

 THE POINT GROUP OF THE MOLECULE IS CS      
 THE ORDER OF THE PRINCIPAL AXIS IS     0

 ATOM      ATOMIC                      COORDINATES (BOHR)
           CHARGE         X                   Y                   Z
 C           6.0    -2.1542876260       -1.0204520334        0.0000000000
 C           6.0     0.3590479377       -0.8125821747        0.0000000000
 C           6.0     1.7007533889        1.6629588692        0.0000000000
 H           1.0    -3.3637122581        0.6425068358        0.0000000000
 H           1.0    -3.0802533600       -2.8534862415        0.0000000000
 H           1.0     1.5117807902       -2.5133355637        0.0000000000
 H           1.0     1.2283218920        2.7589999421       -1.6818561291
 H           1.0     1.2283218920        2.7589999421        1.6818561291
 H           1.0     3.7416574557        1.3606027112        0.0000000000

          INTERNUCLEAR DISTANCES (ANGS.)
          ------------------------------

                1 C          2 C          3 C          4 H          5 H     

   1 C       0.0000000    1.3345411 *  2.4855583 *  1.0881176 *  1.0867382 *
   2 C       1.3345411 *  0.0000000    1.4900336 *  2.1151359 *  2.1163176 *
   3 C       2.4855583 *  1.4900336 *  0.0000000    2.7338617 *  3.4803735  
   4 H       1.0881176 *  2.1151359 *  2.7338617 *  0.0000000    1.8560711 *
   5 H       1.0867382 *  2.1163176 *  3.4803735    1.8560711 *  0.0000000  
   6 H       2.0946837 *  1.0872442 *  2.2122613 *  3.0733207    2.4366575 *
   7 H       2.8277553 *  2.1391120 *  1.0913295 *  2.8198227 *  3.8485582  
   8 H       2.8277553 *  2.1391120 *  1.0913295 *  2.8198227 *  3.8485582  
   9 H       3.3648180    2.1275808 *  1.0917875 *  3.7791533    4.2432299  

                6 H          7 H          8 H          9 H     

   1 C       2.0946837 *  2.8277553 *  2.8277553 *  3.3648180  
   2 C       1.0872442 *  2.1391120 *  2.1391120 *  2.1275808 *
   3 C       2.2122613 *  1.0913295 *  1.0913295 *  1.0917875 *
   4 H       3.0733207    2.8198227 *  2.8198227 *  3.7791533  
   5 H       2.4366575 *  3.8485582    3.8485582    4.2432299  
   6 H       0.0000000    2.9323540 *  2.9323540 *  2.3653541 *
   7 H       2.9323540 *  0.0000000    1.7800000 *  1.7631222 *
   8 H       2.9323540 *  1.7800000 *  0.0000000    1.7631222 *
   9 H       2.3653541 *  1.7631222 *  1.7631222 *  0.0000000  

  * ... LESS THAN  3.000


     ATOMIC BASIS SET
     ----------------
 THE CONTRACTED PRIMITIVE FUNCTIONS HAVE BEEN UNNORMALIZED
 THE CONTRACTED BASIS FUNCTIONS ARE NOW NORMALIZED TO UNITY

  SHELL TYPE  PRIMITIVE        EXPONENT          CONTRACTION COEFFICIENT(S)

 C         

      1   S       1          3047.5248800    0.001834737132
      1   S       2           457.3695180    0.014037322813
      1   S       3           103.9486850    0.068842622264
      1   S       4            29.2101553    0.232184443216
      1   S       5             9.2866630    0.467941348435
      1   S       6             3.1639270    0.362311985337

      2   L       7             7.8682723   -0.119332419775    0.068999066591
      2   L       8             1.8812885   -0.160854151696    0.316423960957
      2   L       9             0.5442493    1.143456437840    0.744308290898

      3   L      10             0.1687145    1.000000000000    1.000000000000

      4   D      11             0.8000000    1.000000000000

 C         

      5   S      12          3047.5248800    0.001834737132
      5   S      13           457.3695180    0.014037322813
      5   S      14           103.9486850    0.068842622264
      5   S      15            29.2101553    0.232184443216
      5   S      16             9.2866630    0.467941348435
      5   S      17             3.1639270    0.362311985337

      6   L      18             7.8682723   -0.119332419775    0.068999066591
      6   L      19             1.8812885   -0.160854151696    0.316423960957
      6   L      20             0.5442493    1.143456437840    0.744308290898

      7   L      21             0.1687145    1.000000000000    1.000000000000

      8   D      22             0.8000000    1.000000000000

 C         

      9   S      23          3047.5248800    0.001834737132
      9   S      24           457.3695180    0.014037322813
      9   S      25           103.9486850    0.068842622264
      9   S      26            29.2101553    0.232184443216
      9   S      27             9.2866630    0.467941348435
      9   S      28             3.1639270    0.362311985337

     10   L      29             7.8682723   -0.119332419775    0.068999066591
     10   L      30             1.8812885   -0.160854151696    0.316423960957
     10   L      31             0.5442493    1.143456437840    0.744308290898

     11   L      32             0.1687145    1.000000000000    1.000000000000

     12   D      33             0.8000000    1.000000000000

 H         

     13   S      34            18.7311370    0.033494604338
     13   S      35             2.8253944    0.234726953484
     13   S      36             0.6401217    0.813757326146

     14   S      37             0.1612778    1.000000000000

 H         

     15   S      38            18.7311370    0.033494604338
     15   S      39             2.8253944    0.234726953484
     15   S      40             0.6401217    0.813757326146

     16   S      41             0.1612778    1.000000000000

 H         

     17   S      42            18.7311370    0.033494604338
     17   S      43             2.8253944    0.234726953484
     17   S      44             0.6401217    0.813757326146

     18   S      45             0.1612778    1.000000000000

 H         

     21   S      46            18.7311370    0.033494604338
     21   S      47             2.8253944    0.234726953484
     21   S      48             0.6401217    0.813757326146

     22   S      49             0.1612778    1.000000000000

 H         

     23   S      50            18.7311370    0.033494604338
     23   S      51             2.8253944    0.234726953484
     23   S      52             0.6401217    0.813757326146

     24   S      53             0.1612778    1.000000000000

 TOTAL NUMBER OF BASIS SET SHELLS             =   24
 NUMBER OF CARTESIAN GAUSSIAN BASIS FUNCTIONS =   57
 NUMBER OF ELECTRONS                          =   24
 CHARGE OF MOLECULE                           =    0
 SPIN MULTIPLICITY                            =    1
 NUMBER OF OCCUPIED ORBITALS (ALPHA)          =   12
 NUMBER OF OCCUPIED ORBITALS (BETA )          =   12
 TOTAL NUMBER OF ATOMS                        =    9
 THE NUCLEAR REPULSION ENERGY IS       70.9591338501

 SELECTED MURRAY-HANDY-LAMING RADIAL GRID

 LEGACY BECKE'S FUZZY CELL METHOD

 SELECTED ORIGINAL BECKE'S PARTITION FUNCTION

     LEBEDEV GRID-BASED DFT OPTIONS
     ------------------------------
     DFTTYP=B3LYP   
     NRAD  =      96     NLEB  =     590
     NRAD0 =      24     NLEB0 =     110
     SWOFF =    5.00E-03 (PURE SCF -> DFT)
     SWITCH=    3.00E-04 (COARSE -> TIGHT GRID)
     THRESH=    0.00E+00 GTHRE=    1.00E+00

 GRIMME'S EMPIRICAL DISPERSION CORRECTION= F

     $CONTRL OPTIONS
     ---------------
 SCFTYP=RHF          RUNTYP=OPTIMIZE     EXETYP=RUN     
 MPLEVL=       0     CITYP =NONE         CCTYP =NONE         VBTYP =NONE    
 DFTTYP=B3LYP        TDDFT =NONE    
 MULT  =       1     ICHARG=       0     NZVAR =       0     COORD =UNIQUE  
 PP    =NONE         RELWFN=NONE         LOCAL =NONE         NUMGRD=       F
 ISPHER=      -1     NOSYM =       0     MAXIT =     200     UNITS =ANGS    
 PLTORB=       F     MOLPLT=       F     AIMPAC=       F     FRIEND=        
 NPRINT=       7     IREST =       0     GEOM  =INPUT   
 NORMF =       0     NORMP =       0     ITOL  =      20     ICUT  =       9
 INTTYP=BEST         GRDTYP=BEST         QMTTOL= 1.0E-06

     $SYSTEM OPTIONS
     ---------------
  REPLICATED MEMORY=   250000000 WORDS (ON EVERY NODE).
 DISTRIBUTED MEMDDI=           0 MILLION WORDS IN AGGREGATE,
 MEMDDI DISTRIBUTED OVER   1 PROCESSORS IS           0 WORDS/PROCESSOR.
 TOTAL MEMORY REQUESTED ON EACH PROCESSOR=   250000000 WORDS.
 TIMLIM=        2879.00 MINUTES, OR       2.0 DAYS.
 PARALL= F  BALTYP=  DLB     KDIAG=    0  COREFL= F
 MXSEQ2=     300 MXSEQ3=     150  mem10=         0

          ----------------
          PROPERTIES INPUT
          ----------------

     MOMENTS            FIELD           POTENTIAL          DENSITY
 IEMOM =       1   IEFLD =       0   IEPOT =       0   IEDEN =       0
 WHERE =COMASS     WHERE =NUCLEI     WHERE =NUCLEI     WHERE =NUCLEI  
 OUTPUT=BOTH       OUTPUT=BOTH       OUTPUT=BOTH       OUTPUT=BOTH    
 IEMINT=       0   IEFINT=       0                     IEDINT=       0
                                                       MORB  =       0
          EXTRAPOLATION IN EFFECT
          DIIS IN EFFECT
 ORBITAL PRINTING OPTION: NPREO=     1    57     2     1

     -------------------------------
     INTEGRAL TRANSFORMATION OPTIONS
     -------------------------------
     NWORD  =            0
     CUTOFF = 1.0E-09     MPTRAN =       0
     DIRTRF =       T     AOINTS =DUP     

          ----------------------
          INTEGRAL INPUT OPTIONS
          ----------------------
 NOPK  =       1 NORDER=       0 SCHWRZ=       T

     ------------------------------------------
     THE POINT GROUP IS CS , NAXIS= 0, ORDER= 2
     ------------------------------------------

     DIMENSIONS OF THE SYMMETRY SUBSPACES ARE
 A'  =   43     A'' =   14

 ..... DONE SETTING UP THE RUN .....
 STEP CPU TIME =     0.01 TOTAL CPU TIME =          0.0 (      0.0 MIN)
 TOTAL WALL CLOCK TIME=          0.0 SECONDS, CPU UTILIZATION IS    50.00%


          -----------------------------
          STATIONARY POINT LOCATION RUN
          -----------------------------

 OBTAINING INITIAL HESSIAN, HESS=GUESS   
 CARTESIAN COORDINATE OPTIMIZATION USING BADGER'S RULE FORCE CONSTANT GUESS

          PARAMETERS CONTROLLING GEOMETRY SEARCH ARE
          METHOD =QA                  UPHESS =BFGS    
          NNEG   =         0          NFRZ   =         0
          NSTEP  =       999          IFOLOW =         1
          HESS   =GUESS               RESTAR =         F
          IHREP  =         0          HSSEND =         T
          NPRT   =         0          NPUN   =         0
          OPTTOL = 5.000E-04          RMIN   = 1.500E-03
          RMAX   = 1.000E-01          RLIM   = 7.000E-02
          DXMAX  = 3.000E-01          PURIFY =         F
          MOVIE  =         F          TRUPD  =         T
          TRMAX  = 5.000E-01          TRMIN  = 5.000E-02
          ITBMAT =         5          STPT   =         F
          STSTEP = 1.000E-02          PROJCT=          T

 BEGINNING GEOMETRY SEARCH POINT NSERCH=   0 ...

 COORDINATES OF SYMMETRY UNIQUE ATOMS (ANGS)
   ATOM   CHARGE       X              Y              Z
 ------------------------------------------------------------
 C           6.0  -1.1400000000  -0.5400000000   0.0000000000
 C           6.0   0.1900000000  -0.4300000000   0.0000000000
 C           6.0   0.9000000000   0.8800000000   0.0000000000
 H           1.0  -1.7800000000   0.3400000000   0.0000000000
 H           1.0  -1.6300000000  -1.5100000000   0.0000000000
 H           1.0   0.8000000000  -1.3300000000   0.0000000000
 H           1.0   0.6500000000   1.4600000000   0.8900000000
 H           1.0   1.9800000000   0.7200000000   0.0000000000
 COORDINATES OF ALL ATOMS ARE (ANGS)
   ATOM   CHARGE       X              Y              Z
 ------------------------------------------------------------
 C           6.0  -1.1400000000  -0.5400000000   0.0000000000
 C           6.0   0.1900000000  -0.4300000000   0.0000000000
 C           6.0   0.9000000000   0.8800000000   0.0000000000
 H           1.0  -1.7800000000   0.3400000000   0.0000000000
 H           1.0  -1.6300000000  -1.5100000000   0.0000000000
 H           1.0   0.8000000000  -1.3300000000   0.0000000000
 H           1.0   0.6500000000   1.4600000000  -0.8900000000
 H           1.0   0.6500000000   1.4600000000   0.8900000000
 H           1.0   1.9800000000   0.7200000000   0.0000000000

          ********************
          1 ELECTRON INTEGRALS
          ********************
 ...... END OF ONE-ELECTRON INTEGRALS ......
 STEP CPU TIME =     0.01 TOTAL CPU TIME =          0.0 (      0.0 MIN)
 TOTAL WALL CLOCK TIME=          0.0 SECONDS, CPU UTILIZATION IS    50.00%

          -------------
          GUESS OPTIONS
          -------------
          GUESS =HUCKEL            NORB  =       0          NORDER=       0
          MIX   =       F          PRTMO =       F          PUNMO =       F
          TOLZ  = 1.0E-08          TOLE  = 1.0E-05
          SYMDEN=       F          PURIFY=       F

 INITIAL GUESS ORBITALS GENERATED BY HUCKEL   ROUTINE.
 HUCKEL GUESS REQUIRES     32010 WORDS.

 SYMMETRIES FOR INITIAL GUESS ORBITALS FOLLOW.   BOTH SET(S).
    12 ORBITALS ARE OCCUPIED (    3 CORE ORBITALS).
     4=A'       5=A'       6=A'       7=A'       8=A''      9=A'      10=A'  
    11=A'      12=A''     13=A''     14=A'      15=A'      16=A''     17=A'  
    18=A'      19=A'      20=A'      21=A'      22=A'  
 ...... END OF INITIAL ORBITAL SELECTION ......
 STEP CPU TIME =     0.01 TOTAL CPU TIME =          0.0 (      0.0 MIN)
 TOTAL WALL CLOCK TIME=          0.1 SECONDS, CPU UTILIZATION IS    50.00%

                    ----------------------
                    AO INTEGRAL TECHNOLOGY
                    ----------------------
     S,P,L SHELL ROTATED AXIS INTEGRALS, REPROGRAMMED BY
        KAZUYA ISHIMURA (IMS) AND JOSE SIERRA (SYNSTAR).
     S,P,D,L SHELL ROTATED AXIS INTEGRALS PROGRAMMED BY
        KAZUYA ISHIMURA (INSTITUTE FOR MOLECULAR SCIENCE).
     S,P,D,F,G SHELL TO TOTAL QUARTET ANGULAR MOMENTUM SUM 5,
        ERIC PROGRAM BY GRAHAM FLETCHER (ELORET AND NASA ADVANCED
        SUPERCOMPUTING DIVISION, AMES RESEARCH CENTER).
     S,P,D,F,G,L SHELL GENERAL RYS QUADRATURE PROGRAMMED BY
        MICHEL DUPUIS (PACIFIC NORTHWEST NATIONAL LABORATORY).

          --------------------
          2 ELECTRON INTEGRALS
          --------------------

 DIRECT SCF METHOD SKIPS INTEGRAL STORAGE ON DISK.
 DIRECT TRANSFORMATION SKIPS AO INTEGRAL STORAGE ON DISK.
  ...... END OF TWO-ELECTRON INTEGRALS .....
 STEP CPU TIME =     0.00 TOTAL CPU TIME =          0.0 (      0.0 MIN)
 TOTAL WALL CLOCK TIME=          0.1 SECONDS, CPU UTILIZATION IS    42.86%

          --------------------------
             R-B3LYP SCF CALCULATION
          --------------------------

     NUCLEAR ENERGY =        70.9591338501
     MAXIT =  200     NPUNCH=    2
     EXTRAP=T  DAMP=F  SHIFT=F  RSTRCT=F  DIIS=T  DEM=F  SOSCF=F
         DENSITY MATRIX CONVERGENCE THRESHOLD=  2.00E-05
     COARSE -> FINE DFT GRID SWITCH THRESHOLD=  3.00E-04 (SWITCH IN $DFT)
                   HF -> DFT SWITCH THRESHOLD=  5.00E-03 (SWOFF IN $DFT)
     MEMORY REQUIRED FOR RHF ITERS=    668725 WORDS.

 DIRECT SCF CALCULATION, SCHWRZ=T   FDIFF=T,  DIRTHR=  0.00E+00 NITDIR=10
 SCHWARZ INEQUALITY OVERHEAD:      1653 INTEGRALS, T=        0.00

 DFT CODE IS SWITCHING FROM THE FINE GRID NRAD= 96,  NLEB=  590
                      TO THE COARSE GRID NRAD0= 24, NLEB0=  110

     EXCHANGE FUNCTIONAL   =B88&HFX   
     CORRELATION FUNCTIONAL=LYP88&VWN5
     DFT THRESHOLD         =.785E-08
     GRID CHANGE THRESHOLD =.300E-03
 FOR AN EULER-MACLAURIN QUADRATURE USING  96 RADIAL POINTS:
 SMALLEST GAUSSIAN PRIMITIVE EXPONENT=        0.1612777588 OF TYPE -S-
 ON ATOM NUMBER   4 HAS RADIAL NORMALIZATION=  1.000000
  LARGEST GAUSSIAN PRIMITIVE EXPONENT=     3047.5248800000 OF TYPE -S-
 ON ATOM NUMBER   1 HAS RADIAL NORMALIZATION=  1.000000
 DFT IS SWITCHED OFF, PERFORMING PURE SCF UNTIL SWOFF THRESHOLD IS REACHED.

                                                                                   NONZERO     BLOCKS
 ITER EX DEM     TOTAL ENERGY        E CHANGE  DENSITY CHANGE    DIIS ERROR      INTEGRALS    SKIPPED
          * * *   INITIATING DIIS PROCEDURE   * * *
   1  0  0     -116.7932640052  -116.7932640052   0.130301551   0.398467019         720179       1232
   2  1  0     -117.0489463164    -0.2556823113   0.083184239   0.074792298         719698       1444
   3  2  0     -117.0634799860    -0.0145336695   0.021313677   0.025903894         718870       1702
   4  3  0     -117.0667033714    -0.0032233854   0.007239618   0.005732713         716680       2058
   5  4  0     -117.0668950344    -0.0001916630   0.003236835   0.001943933         714506       2312
 CONVERGED TO SWOFF, SO DFT CALCULATION IS NOW SWITCHED ON.
          * * *   INITIATING DIIS PROCEDURE   * * *
   6  5  0     -117.8019475064    -0.7350524720   0.059050028   0.072766675         720166       1237
   7  6  0     -117.8130266892    -0.0110791828   0.029743822   0.026218660         719135       1642
   8  7  0     -117.8133696445    -0.0003429553   0.015484415   0.024760128         717529       1855
   9  8  0     -117.8150604049    -0.0016907604   0.004144076   0.003529674         716122       2076
  10  9  0     -117.8150961297    -0.0000357249   0.000833447   0.000637598         709222       2995
  11 10  0     -117.8150981278    -0.0000019980   0.000111319   0.000077801         704081       3581
 DFT CODE IS SWITCHING BACK TO THE FINE GRID
          * * *   INITIATING DIIS PROCEDURE   * * *
  12 11  0     -117.8160508476    -0.0009527199   0.001656679   0.000705241         720219       1220
  13 12  0     -117.8160540634    -0.0000032158   0.000210566   0.000148476         709807       2993
  14 13  0     -117.8160540737    -0.0000000103   0.000170000   0.000144735         700146       3979
  15 14  0     -117.8160541332    -0.0000000596   0.000059325   0.000053771         692514       4635
  16 15  0     -117.8160541418    -0.0000000085   0.000016770   0.000013925         681756       5562
  17 16  0     -117.8160541426    -0.0000000009   0.000001287   0.000001197         666904       6986

          -----------------
          DENSITY CONVERGED
          -----------------
     TIME TO FORM FOCK OPERATORS=       6.2 SECONDS (       0.4 SEC/ITER)
     FOCK TIME ON FIRST ITERATION=       0.1, LAST ITERATION=       0.9
     TIME TO SOLVE SCF EQUATIONS=       0.1 SECONDS (       0.0 SEC/ITER)

 FINAL R-B3LYP ENERGY IS     -117.8160541426 AFTER  17 ITERATIONS
 DFT EXCHANGE + CORRELATION ENERGY =       -14.8766022793
 TOTAL ELECTRON NUMBER             =        24.0000110073

          ------------
          EIGENVECTORS
          ------------

                      1          2          3          4          5
                  -10.1802   -10.1724   -10.1671    -0.7779    -0.6755
                     A'         A'         A'         A'         A'  
    1  C  1  S    0.032593  -0.001853   0.992168  -0.113190   0.137541
    2  C  1  S    0.001056  -0.000263   0.049309   0.215640  -0.267621
    3  C  1  X   -0.000375  -0.000046  -0.000002   0.087054  -0.030878
    4  C  1  Y   -0.000053  -0.000084   0.000020   0.016189   0.018013
    5  C  1  Z    0.000000   0.000000   0.000000   0.000000   0.000000
    6  C  1  S    0.004560   0.000553  -0.013402   0.165165  -0.222166
    7  C  1  X    0.001891   0.000705  -0.001132   0.009956   0.009787
    8  C  1  Y    0.000890   0.000090  -0.000139   0.005339   0.003107
    9  C  1  Z    0.000000   0.000000   0.000000   0.000000   0.000000
   10  C  1 XX   -0.000612   0.000125  -0.009217   0.007482  -0.002152
   11  C  1 YY   -0.000507   0.000046  -0.009466  -0.000570  -0.003330
   12  C  1 ZZ   -0.000449  -0.000085  -0.009784  -0.012141   0.013654
   13  C  1 XY    0.000031  -0.000015   0.000028   0.001609   0.001385
   14  C  1 XZ    0.000000   0.000000   0.000000   0.000000   0.000000
   15  C  1 YZ    0.000000   0.000000   0.000000   0.000000   0.000000
   16  C  2  S    0.992077  -0.017592  -0.033113  -0.153938   0.035498
   17  C  2  S    0.049276  -0.001061  -0.002165   0.298666  -0.071160
   18  C  2  X    0.000067  -0.000077   0.000414  -0.038752   0.164894
   19  C  2  Y    0.000163  -0.000186   0.000006   0.039530   0.103973
   20  C  2  Z    0.000000   0.000000   0.000000   0.000000   0.000000
   21  C  2  S   -0.014662   0.004118   0.005002   0.196225  -0.053760
   22  C  2  X    0.000697   0.001706  -0.002164   0.010482   0.031863
   23  C  2  Y   -0.001406   0.002090  -0.000229  -0.003488   0.029331
   24  C  2  Z    0.000000   0.000000   0.000000   0.000000   0.000000
   25  C  2 XX   -0.009053  -0.000068   0.000020   0.003665  -0.007702
   26  C  2 YY   -0.009331  -0.000164   0.000069   0.002248   0.011712
   27  C  2 ZZ   -0.009576   0.000030   0.000188  -0.015765   0.003120
   28  C  2 XY    0.000037  -0.000181  -0.000026   0.001998   0.006782
   29  C  2 XZ    0.000000   0.000000   0.000000   0.000000   0.000000
   30  C  2 YZ    0.000000   0.000000   0.000000   0.000000   0.000000
   31  C  3  S    0.017422   0.992732   0.001248  -0.119228  -0.147365
   32  C  3  S    0.000715   0.050164  -0.000047   0.224529   0.288474
   33  C  3  X    0.000055  -0.000044   0.000048  -0.034038   0.031201
   34  C  3  Y    0.000306  -0.000081   0.000015  -0.052266   0.021297
   35  C  3  Z    0.000000   0.000000   0.000000   0.000000   0.000000
   36  C  3  S    0.003309  -0.017456  -0.000158   0.194048   0.264347
   37  C  3  X   -0.000783   0.000457  -0.000125  -0.013289   0.018392
   38  C  3  Y   -0.001797   0.001087  -0.000132  -0.006059   0.012595
   39  C  3  Z    0.000000   0.000000   0.000000   0.000000   0.000000
   40  C  3 XX   -0.000310  -0.009186   0.000036   0.000456  -0.000593
   41  C  3 YY   -0.000616  -0.009222   0.000058   0.003464  -0.004009
   42  C  3 ZZ   -0.000191  -0.009158  -0.000040  -0.001905   0.002777
   43  C  3 XY   -0.000139  -0.000022   0.000049   0.004394  -0.006137
   44  C  3 XZ    0.000000   0.000000   0.000000   0.000000   0.000000
   45  C  3 YZ    0.000000   0.000000   0.000000   0.000000   0.000000
   46  H  4  S   -0.000136  -0.000081  -0.000326   0.056815  -0.084111
   47  H  4  S   -0.000334   0.000240   0.002190   0.009766  -0.020721
   48  H  5  S   -0.000038  -0.000015  -0.000338   0.051791  -0.097792
   49  H  5  S    0.000256   0.000351   0.002157   0.009494  -0.030172
   50  H  6  S   -0.000351  -0.000128  -0.000051   0.076238  -0.021912
   51  H  6  S    0.001870  -0.000096  -0.000060   0.009795  -0.003709
   52  H  7  S   -0.000161  -0.000043  -0.000027   0.065102   0.104096
   53  H  7  S    0.000427   0.002704   0.000070   0.009021   0.030181
   54  H  8  S   -0.000161  -0.000043  -0.000027   0.065102   0.104096
   55  H  8  S    0.000427   0.002704   0.000070   0.009021   0.030181
   56  H  9  S   -0.000099  -0.000023   0.000012   0.063284   0.112713
   57  H  9  S   -0.000107   0.002728   0.000214   0.013766   0.032241

                      6          7          8          9         10
                   -0.5456    -0.4576    -0.4131    -0.4104    -0.3602
                     A'         A'         A'         A''        A'  
    1  C  1  S    0.091150   0.016953  -0.001166   0.000000  -0.027713
    2  C  1  S   -0.183259  -0.035703   0.003606   0.000000   0.058298
    3  C  1  X    0.189059   0.169711   0.272489   0.000000   0.243321
    4  C  1  Y   -0.041597   0.272430  -0.210413   0.000000   0.137751
    5  C  1  Z    0.000000   0.000000   0.000000   0.066334   0.000000
    6  C  1  S   -0.174555  -0.038848  -0.027038   0.000000   0.088795
    7  C  1  X    0.068693   0.061107   0.096097   0.000000   0.096246
    8  C  1  Y   -0.011539   0.107975  -0.083282   0.000000   0.045993
    9  C  1  Z    0.000000   0.000000   0.000000   0.037589   0.000000
   10  C  1 XX    0.009022   0.005499   0.002051   0.000000   0.002750
   11  C  1 YY   -0.013517  -0.010076  -0.010258   0.000000  -0.012598
   12  C  1 ZZ    0.008231   0.001295   0.000312   0.000000  -0.001654
   13  C  1 XY    0.000685  -0.002978   0.010908   0.000000  -0.006674
   14  C  1 XZ    0.000000   0.000000   0.000000   0.005153   0.000000
   15  C  1 YZ    0.000000   0.000000   0.000000   0.001693   0.000000
   16  C  2  S   -0.121710  -0.032479   0.001389   0.000000   0.001798
   17  C  2  S    0.250002   0.071690  -0.005349   0.000000  -0.002808
   18  C  2  X    0.121396  -0.156934  -0.267237   0.000000  -0.267786
   19  C  2  Y   -0.113729   0.232658  -0.135617   0.000000  -0.042869
   20  C  2  Z    0.000000   0.000000   0.000000   0.148660   0.000000
   21  C  2  S    0.228249   0.044635  -0.013807   0.000000  -0.032530
   22  C  2  X    0.057145  -0.037668  -0.094321   0.000000  -0.069833
   23  C  2  Y   -0.040408   0.064463  -0.050418   0.000000   0.000174
   24  C  2  Z    0.000000   0.000000   0.000000   0.071863   0.000000
   25  C  2 XX   -0.006319  -0.004918  -0.001141   0.000000   0.014490
   26  C  2 YY    0.003105  -0.005640  -0.002417   0.000000  -0.017868
   27  C  2 ZZ   -0.010393  -0.001562   0.000830   0.000000  -0.000157
   28  C  2 XY   -0.009658  -0.001801   0.003801   0.000000   0.003245
   29  C  2 XZ    0.000000   0.000000   0.000000   0.002041   0.000000
   30  C  2 YZ    0.000000   0.000000   0.000000   0.009966   0.000000
   31  C  3  S    0.051459   0.012379  -0.006831   0.000000   0.008547
   32  C  3  S   -0.102291  -0.025759   0.009576   0.000000  -0.020433
   33  C  3  X   -0.021638  -0.241225  -0.075863   0.000000   0.366837
   34  C  3  Y   -0.158489  -0.036048   0.287888   0.000000  -0.017018
   35  C  3  Z    0.000000   0.000000   0.000000   0.431216   0.000000
   36  C  3  S   -0.116594  -0.022134   0.031493   0.000000  -0.041088
   37  C  3  X   -0.005726  -0.116799  -0.033490   0.000000   0.169496
   38  C  3  Y   -0.056150  -0.009685   0.129820   0.000000   0.001572
   39  C  3  Z    0.000000   0.000000   0.000000   0.199536   0.000000
   40  C  3 XX   -0.001328  -0.006172  -0.006217   0.000000   0.026613
   41  C  3 YY    0.010894   0.002832  -0.004219   0.000000  -0.012634
   42  C  3 ZZ   -0.007729   0.001992   0.014340   0.000000  -0.009915
   43  C  3 XY    0.007221   0.010619  -0.003655   0.000000  -0.001304
   44  C  3 XZ    0.000000   0.000000   0.000000  -0.011585   0.000000
   45  C  3 YZ    0.000000   0.000000   0.000000   0.018055   0.000000
   46  H  4  S   -0.150554   0.046761  -0.201886   0.000000   0.004169
   47  H  4  S   -0.082039   0.031281  -0.158850   0.000000  -0.009871
   48  H  5  S   -0.104452  -0.196145   0.037246   0.000000  -0.132972
   49  H  5  S   -0.052209  -0.138200   0.029664   0.000000  -0.138347
   50  H  6  S    0.183815  -0.124606  -0.029843   0.000000  -0.084299
   51  H  6  S    0.092040  -0.109403  -0.029022   0.000000  -0.078182
   52  H  7  S   -0.082779   0.008107   0.112103  -0.220600  -0.076336
   53  H  7  S   -0.043257   0.004898   0.083283  -0.176673  -0.070041
   54  H  8  S   -0.082779   0.008107   0.112103   0.220600  -0.076336
   55  H  8  S   -0.043257   0.004898   0.083283   0.176673  -0.070041
   56  H  9  S   -0.041521  -0.145981  -0.066024   0.000000   0.247921
   57  H  9  S   -0.018815  -0.099360  -0.059712   0.000000   0.234852

                     11         12         13         14         15
                   -0.3386    -0.2430     0.0245     0.1138     0.1352
                     A'         A''        A''        A'         A'  
    1  C  1  S   -0.007356   0.000000   0.000000  -0.050029  -0.003892
    2  C  1  S    0.015992   0.000000   0.000000   0.098106   0.029080
    3  C  1  X    0.054562   0.000000   0.000000  -0.091797  -0.017167
    4  C  1  Y   -0.251477   0.000000   0.000000  -0.080374   0.135265
    5  C  1  Z    0.000000   0.404126   0.388722   0.000000   0.000000
    6  C  1  S    0.018297   0.000000   0.000000   0.553754  -0.041192
    7  C  1  X    0.008718   0.000000   0.000000  -0.470817  -0.108165
    8  C  1  Y   -0.082287   0.000000   0.000000  -0.177602   0.316312
    9  C  1  Z    0.000000   0.298373   0.595797   0.000000   0.000000
   10  C  1 XX   -0.003342   0.000000   0.000000   0.003762   0.000431
   11  C  1 YY    0.001774   0.000000   0.000000  -0.010354   0.008556
   12  C  1 ZZ   -0.000480   0.000000   0.000000  -0.000919  -0.002676
   13  C  1 XY    0.026944   0.000000   0.000000  -0.015333   0.005013
   14  C  1 XZ    0.000000   0.014927  -0.023741   0.000000   0.000000
   15  C  1 YZ    0.000000   0.000741  -0.000541   0.000000   0.000000
   16  C  2  S   -0.007485   0.000000   0.000000  -0.052223   0.041492
   17  C  2  S    0.023650   0.000000   0.000000   0.083880  -0.016718
   18  C  2  X   -0.047899   0.000000   0.000000   0.120962  -0.089395
   19  C  2  Y    0.319334   0.000000   0.000000  -0.158621   0.092066
   20  C  2  Z    0.000000   0.373932  -0.420791   0.000000   0.000000
   21  C  2  S    0.002738   0.000000   0.000000   0.960721  -0.694350
   22  C  2  X   -0.033952   0.000000   0.000000   0.102475  -0.332345
   23  C  2  Y    0.095412   0.000000   0.000000  -0.425091   0.035763
   24  C  2  Z    0.000000   0.270317  -0.568710   0.000000   0.000000
   25  C  2 XX   -0.000718   0.000000   0.000000   0.005677   0.003158
   26  C  2 YY   -0.006229   0.000000   0.000000  -0.006605   0.018523
   27  C  2 ZZ   -0.000091   0.000000   0.000000  -0.004523  -0.002800
   28  C  2 XY    0.027228   0.000000   0.000000   0.014204  -0.011932
   29  C  2 XZ    0.000000  -0.017808  -0.025104   0.000000   0.000000
   30  C  2 YZ    0.000000  -0.005656   0.000798   0.000000   0.000000
   31  C  3  S   -0.022843   0.000000   0.000000  -0.078024  -0.116193
   32  C  3  S    0.048515   0.000000   0.000000   0.095597   0.124725
   33  C  3  X   -0.034824   0.000000   0.000000   0.163234  -0.074632
   34  C  3  Y   -0.288742   0.000000   0.000000   0.036462   0.196768
   35  C  3  Z    0.000000  -0.127289  -0.035242   0.000000   0.000000
   36  C  3  S    0.115741   0.000000   0.000000   1.285789   2.027329
   37  C  3  X   -0.013032   0.000000   0.000000   0.511897  -0.242443
   38  C  3  Y   -0.156022   0.000000   0.000000   0.130499   0.472789
   39  C  3  Z    0.000000  -0.075373  -0.193005   0.000000   0.000000
   40  C  3 XX    0.005515   0.000000   0.000000  -0.023772   0.002211
   41  C  3 YY   -0.000945   0.000000   0.000000   0.004840  -0.012250
   42  C  3 ZZ   -0.011050   0.000000   0.000000  -0.000116  -0.018357
   43  C  3 XY    0.010195   0.000000   0.000000   0.001484   0.003594
   44  C  3 XZ    0.000000  -0.003506   0.002911   0.000000   0.000000
   45  C  3 YZ    0.000000  -0.020814   0.028938   0.000000   0.000000
   46  H  4  S   -0.175779   0.000000   0.000000   0.028774   0.003027
   47  H  4  S   -0.200271   0.000000   0.000000  -0.286140  -0.476195
   48  H  5  S    0.162269   0.000000   0.000000  -0.070591   0.010743
   49  H  5  S    0.164258   0.000000   0.000000  -0.855025   0.331338
   50  H  6  S   -0.211371   0.000000   0.000000  -0.042008   0.090026
   51  H  6  S   -0.221764   0.000000   0.000000  -1.021232   0.798709
   52  H  7  S   -0.083773   0.098088  -0.085648   0.018931  -0.047307
   53  H  7  S   -0.094030   0.105144  -0.365484  -0.342489  -1.230067
   54  H  8  S   -0.083773  -0.098088   0.085648   0.018931  -0.047307
   55  H  8  S   -0.094030  -0.105144   0.365484  -0.342489  -1.230067
   56  H  9  S    0.029521   0.000000   0.000000  -0.079479   0.032700
   57  H  9  S    0.010492   0.000000   0.000000  -1.195597  -0.231740

                     16         17         18         19         20
                    0.1551     0.1902     0.1969     0.2082     0.2943
                     A'         A'         A''        A'         A'  
    1  C  1  S   -0.115823   0.034921   0.000000   0.040588   0.031260
    2  C  1  S    0.161613  -0.040370   0.000000  -0.058060   0.003897
    3  C  1  X   -0.210796   0.050088   0.000000  -0.053359   0.036666
    4  C  1  Y    0.105907   0.341826   0.000000   0.077095  -0.175346
    5  C  1  Z    0.000000   0.000000   0.135676   0.000000   0.000000
    6  C  1  S    1.879542  -0.806202   0.000000  -0.373310  -0.960787
    7  C  1  X   -0.512235  -0.080742   0.000000  -0.280149  -0.594362
    8  C  1  Y    0.249765   1.072025   0.000000   0.423641  -1.511674
    9  C  1  Z    0.000000   0.000000   0.228109   0.000000   0.000000
   10  C  1 XX   -0.005737  -0.001568   0.000000   0.011992   0.004582
   11  C  1 YY   -0.009060  -0.002568   0.000000  -0.003133  -0.010684
   12  C  1 ZZ   -0.006901   0.005468   0.000000   0.001922   0.007444
   13  C  1 XY    0.011899   0.007890   0.000000   0.007949   0.022329
   14  C  1 XZ    0.000000   0.000000  -0.013880   0.000000   0.000000
   15  C  1 YZ    0.000000   0.000000  -0.001936   0.000000   0.000000
   16  C  2  S    0.015427  -0.037951   0.000000  -0.113728  -0.070989
   17  C  2  S   -0.046026   0.039664   0.000000   0.175288   0.065510
   18  C  2  X    0.036244   0.027270   0.000000   0.144149  -0.035264
   19  C  2  Y    0.112762   0.101472   0.000000  -0.050227   0.385169
   20  C  2  Z    0.000000   0.000000  -0.139489   0.000000   0.000000
   21  C  2  S   -0.045761   0.699640   0.000000   2.066769   2.062658
   22  C  2  X    0.245682  -0.147399   0.000000   0.646819  -0.352062
   23  C  2  Y    0.445905   0.029363   0.000000  -0.260685   2.246011
   24  C  2  Z    0.000000   0.000000  -0.475736   0.000000   0.000000
   25  C  2 XX    0.006203   0.008810   0.000000  -0.007559   0.007911
   26  C  2 YY   -0.009790  -0.018097   0.000000   0.006111  -0.002772
   27  C  2 ZZ    0.003324   0.001103   0.000000  -0.007747  -0.005057
   28  C  2 XY   -0.013006  -0.017970   0.000000  -0.019787   0.013401
   29  C  2 XZ    0.000000   0.000000   0.005367   0.000000   0.000000
   30  C  2 YZ    0.000000   0.000000   0.011268   0.000000   0.000000
   31  C  3  S    0.056660   0.022683   0.000000   0.056165   0.055582
   32  C  3  S   -0.054875  -0.055089   0.000000  -0.063380   0.026832
   33  C  3  X   -0.065839   0.282451   0.000000  -0.167656   0.076482
   34  C  3  Y    0.037364   0.020552   0.000000   0.229837   0.091333
   35  C  3  Z    0.000000   0.000000   0.434004   0.000000   0.000000
   36  C  3  S   -1.068679  -0.064686   0.000000  -0.859877  -1.710169
   37  C  3  X    0.026015   0.951419   0.000000  -0.545644   1.240113
   38  C  3  Y    0.142518  -0.034592   0.000000   1.083437   1.401979
   39  C  3  Z    0.000000   0.000000   1.423803   0.000000   0.000000
   40  C  3 XX   -0.002534  -0.004258   0.000000   0.005907  -0.003185
   41  C  3 YY    0.006984   0.007360   0.000000   0.016882   0.022617
   42  C  3 ZZ    0.007413   0.000784   0.000000  -0.011286  -0.007520
   43  C  3 XY    0.000942   0.013972   0.000000   0.010978   0.027283
   44  C  3 XZ    0.000000   0.000000   0.012632   0.000000   0.000000
   45  C  3 YZ    0.000000   0.000000  -0.000911   0.000000   0.000000
   46  H  4  S   -0.103286  -0.021718   0.000000  -0.016459  -0.046909
   47  H  4  S   -1.650514  -0.807606   0.000000  -0.314137   1.179221
   48  H  5  S   -0.018380   0.048277   0.000000   0.040838   0.021990
   49  H  5  S   -0.786212   1.597548   0.000000   0.561774  -1.068688
   50  H  6  S    0.041398   0.011428   0.000000  -0.001278  -0.018366
   51  H  6  S    0.453838  -0.039589   0.000000  -1.462073   1.390254
   52  H  7  S    0.028511   0.014040   0.056754  -0.046669  -0.058285
   53  H  7  S    0.287786   0.400256   1.535583  -0.503374  -0.028182
   54  H  8  S    0.028511   0.014040  -0.056754  -0.046669  -0.058285
   55  H  8  S    0.287786   0.400256  -1.535583  -0.503374  -0.028182
   56  H  9  S   -0.026241  -0.064578   0.000000   0.040545  -0.087168
   57  H  9  S    0.417405  -1.157798   0.000000   1.266691  -0.428829

                     21         22         23         24         25
                    0.3496     0.5043     0.5345     0.5547     0.5911
                     A'         A'         A'         A''        A'  
    1  C  1  S   -0.074777   0.003528  -0.018955   0.000000  -0.008080
    2  C  1  S    0.015993   0.220606   0.163464   0.000000   0.335158
    3  C  1  X    0.104997   0.538445   0.083945   0.000000   0.313835
    4  C  1  Y   -0.057392   0.018252   0.308217   0.000000  -0.076788
    5  C  1  Z    0.000000   0.000000   0.000000  -0.641574   0.000000
    6  C  1  S    3.221764   0.547150  -0.179860   0.000000   0.331476
    7  C  1  X    2.940617  -0.366936   0.389835   0.000000  -0.198434
    8  C  1  Y    0.044413  -0.171046  -0.490091   0.000000   0.436983
    9  C  1  Z    0.000000   0.000000   0.000000   0.631506   0.000000
   10  C  1 XX   -0.024039   0.050899  -0.013273   0.000000   0.032648
   11  C  1 YY    0.034493  -0.015136   0.014319   0.000000   0.028936
   12  C  1 ZZ   -0.011895   0.003887   0.007708   0.000000  -0.012354
   13  C  1 XY    0.014481   0.005635  -0.093441   0.000000   0.015258
   14  C  1 XZ    0.000000   0.000000   0.000000  -0.051031   0.000000
   15  C  1 YZ    0.000000   0.000000   0.000000   0.003118   0.000000
   16  C  2  S    0.051786   0.021193   0.034105   0.000000   0.072302
   17  C  2  S    0.014862   0.065812  -0.006851   0.000000   0.279677
   18  C  2  X    0.296510  -0.360602   0.116595   0.000000  -0.187996
   19  C  2  Y    0.099333  -0.191357   0.105709   0.000000  -0.214370
   20  C  2  Z    0.000000   0.000000   0.000000  -0.640421   0.000000
   21  C  2  S   -2.721404  -0.191017   0.018544   0.000000  -0.390383
   22  C  2  X    3.065627   1.255115   0.024389   0.000000   0.831548
   23  C  2  Y    0.582064   0.577301  -0.008897   0.000000   0.132444
   24  C  2  Z    0.000000   0.000000   0.000000   0.348174   0.000000
   25  C  2 XX    0.013206   0.072524   0.030394   0.000000   0.096627
   26  C  2 YY   -0.012149  -0.057123   0.041701   0.000000   0.116788
   27  C  2 ZZ    0.007790  -0.008114  -0.023853   0.000000  -0.072354
   28  C  2 XY   -0.007567  -0.002320   0.085507   0.000000   0.022256
   29  C  2 XZ    0.000000   0.000000   0.000000   0.053638   0.000000
   30  C  2 YZ    0.000000   0.000000   0.000000   0.002905   0.000000
   31  C  3  S    0.012258  -0.008467  -0.007703   0.000000  -0.021173
   32  C  3  S   -0.032464   0.030633   0.171217   0.000000   0.213779
   33  C  3  X    0.160192  -0.130053  -0.558282   0.000000   0.047510
   34  C  3  Y    0.085322   0.325154  -0.381874   0.000000  -0.774008
   35  C  3  Z    0.000000   0.000000   0.000000  -0.310732   0.000000
   36  C  3  S   -0.466618  -0.564668  -0.171874   0.000000  -0.262939
   37  C  3  X   -0.271634   0.095233   0.843476   0.000000  -0.484080
   38  C  3  Y    1.022263  -0.255776   0.493620   0.000000   1.167828
   39  C  3  Z    0.000000   0.000000   0.000000   0.763276   0.000000
   40  C  3 XX   -0.004872  -0.066447  -0.064935   0.000000   0.044956
   41  C  3 YY    0.028212  -0.002869   0.051097   0.000000  -0.004694
   42  C  3 ZZ   -0.022261   0.052770   0.033409   0.000000  -0.036860
   43  C  3 XY   -0.008862  -0.053517   0.013372   0.000000  -0.036664
   44  C  3 XZ    0.000000   0.000000   0.000000   0.037004   0.000000
   45  C  3 YZ    0.000000   0.000000   0.000000  -0.040952   0.000000
   46  H  4  S    0.038183  -0.042046   0.354937   0.000000  -0.072651
   47  H  4  S    0.629736   0.119163   0.142454   0.000000  -0.281841
   48  H  5  S    0.141876   0.008390  -0.235918   0.000000   0.114665
   49  H  5  S    0.259805  -0.049226   0.212653   0.000000   0.178624
   50  H  6  S   -0.019631  -0.061578  -0.191837   0.000000   0.380612
   51  H  6  S   -0.422956  -0.025467   0.102352   0.000000  -0.188831
   52  H  7  S   -0.051869   0.197364   0.064435   0.242840  -0.115160
   53  H  7  S   -0.351822  -0.075739  -0.035575   0.221315  -0.178035
   54  H  8  S   -0.051869   0.197364   0.064435  -0.242840  -0.115160
   55  H  8  S   -0.351822  -0.075739  -0.035575  -0.221315  -0.178035
   56  H  9  S   -0.029960  -0.232992  -0.316591   0.000000   0.148793
   57  H  9  S    0.010079   0.136223   0.030125   0.000000   0.193107

                     26         27         28         29         30
                    0.6199     0.6826     0.6849     0.7627     0.7856
                     A''        A''        A'         A'         A'  
    1  C  1  S    0.000000   0.000000  -0.087065  -0.025176   0.020251
    2  C  1  S    0.000000   0.000000  -0.471541  -0.005199  -0.381147
    3  C  1  X    0.000000   0.000000   0.431307   0.107518  -0.369242
    4  C  1  Y    0.000000   0.000000   0.043619  -0.164605  -0.195658
    5  C  1  Z    0.736077   0.430956   0.000000   0.000000   0.000000
    6  C  1  S    0.000000   0.000000   1.589342  -1.180379   1.041329
    7  C  1  X    0.000000   0.000000  -0.672135  -0.202622   0.677907
    8  C  1  Y    0.000000   0.000000   0.007273   0.094488   0.346826
    9  C  1  Z   -0.774696  -0.916781   0.000000   0.000000   0.000000
   10  C  1 XX    0.000000   0.000000  -0.145729  -0.113488   0.073454
   11  C  1 YY    0.000000   0.000000  -0.143891   0.027723  -0.068973
   12  C  1 ZZ    0.000000   0.000000   0.095701   0.038184  -0.019504
   13  C  1 XY    0.000000   0.000000  -0.010427   0.022110  -0.039924
   14  C  1 XZ    0.002319  -0.011840   0.000000   0.000000   0.000000
   15  C  1 YZ    0.017406  -0.022761   0.000000   0.000000   0.000000
   16  C  2  S    0.000000   0.000000   0.039792   0.027987  -0.035628
   17  C  2  S    0.000000   0.000000  -0.498655  -0.282455  -0.636196
   18  C  2  X    0.000000   0.000000   0.362590   0.423172  -0.579709
   19  C  2  Y    0.000000   0.000000   0.024751  -0.469248  -0.552567
   20  C  2  Z   -0.150619  -0.858534   0.000000   0.000000   0.000000
   21  C  2  S    0.000000   0.000000   0.617040   0.641128   1.378914
   22  C  2  X    0.000000   0.000000   0.221491  -1.768754   1.525947
   23  C  2  Y    0.000000   0.000000  -0.145618   1.592543   1.121823
   24  C  2  Z   -0.050682   1.634163   0.000000   0.000000   0.000000
   25  C  2 XX    0.000000   0.000000   0.061660   0.009181  -0.159398
   26  C  2 YY    0.000000   0.000000  -0.066137   0.058931  -0.026438
   27  C  2 ZZ    0.000000   0.000000  -0.023272  -0.047222   0.038687
   28  C  2 XY    0.000000   0.000000   0.033845  -0.047027   0.070822
   29  C  2 XZ   -0.026594  -0.017139   0.000000   0.000000   0.000000
   30  C  2 YZ    0.004899  -0.043921   0.000000   0.000000   0.000000
   31  C  3  S    0.000000   0.000000  -0.009598  -0.020159  -0.053442
   32  C  3  S    0.000000   0.000000   0.050736   0.104112   0.047076
   33  C  3  X    0.000000   0.000000   0.087989  -0.647717  -0.154425
   34  C  3  Y    0.000000   0.000000  -0.111501   0.159036  -0.219453
   35  C  3  Z   -0.599206   0.366475   0.000000   0.000000   0.000000
   36  C  3  S    0.000000   0.000000  -0.059752  -0.322212  -0.609666
   37  C  3  X    0.000000   0.000000  -0.354039   2.115204   0.575063
   38  C  3  Y    0.000000   0.000000   0.464298  -0.521552   1.297259
   39  C  3  Z    1.341667  -1.320751   0.000000   0.000000   0.000000
   40  C  3 XX    0.000000   0.000000  -0.002004   0.016253   0.019125
   41  C  3 YY    0.000000   0.000000   0.034650  -0.090858  -0.069593
   42  C  3 ZZ    0.000000   0.000000  -0.024684   0.063516  -0.006118
   43  C  3 XY    0.000000   0.000000  -0.031637   0.043604  -0.049257
   44  C  3 XZ    0.070033  -0.029518   0.000000   0.000000   0.000000
   45  C  3 YZ   -0.055330   0.059427   0.000000   0.000000   0.000000
   46  H  4  S    0.000000   0.000000  -0.542580  -0.176119   0.026558
   47  H  4  S    0.000000   0.000000  -0.272017   0.242249  -0.217345
   48  H  5  S    0.000000   0.000000  -0.595774   0.223616  -0.073276
   49  H  5  S    0.000000   0.000000  -0.120075   0.041368   0.410154
   50  H  6  S    0.000000   0.000000  -0.110197   0.426302  -0.382413
   51  H  6  S    0.000000   0.000000  -0.173943   0.889726   0.049396
   52  H  7  S    0.281490  -0.205999  -0.082631  -0.057682  -0.314500
   53  H  7  S    0.283652  -0.309439  -0.175889   0.401647  -0.221617
   54  H  8  S   -0.281490   0.205999  -0.082631  -0.057682  -0.314500
   55  H  8  S   -0.283652   0.309439  -0.175889   0.401647  -0.221617
   56  H  9  S    0.000000   0.000000  -0.008870  -0.093878  -0.169150
   57  H  9  S    0.000000   0.000000   0.251149  -1.111258  -0.379666

                     31         32         33         34         35
                    0.8660     0.8827     0.8897     0.9264     0.9474
                     A'         A''        A'         A'         A'  
    1  C  1  S   -0.002989   0.000000   0.013545  -0.009536   0.024073
    2  C  1  S    0.095069   0.000000   0.093401   0.344660  -0.984602
    3  C  1  X    0.212938   0.000000   0.037731   0.045594   0.571934
    4  C  1  Y   -1.034747   0.000000  -0.145798   0.328195   0.102190
    5  C  1  Z    0.000000  -0.086831   0.000000   0.000000   0.000000
    6  C  1  S   -0.172753   0.000000  -1.026580   0.015175   1.892602
    7  C  1  X   -0.410062   0.000000  -0.564646   0.269962  -1.000323
    8  C  1  Y    2.701540   0.000000  -0.112794  -1.223786  -0.276992
    9  C  1  Z    0.000000   0.113578   0.000000   0.000000   0.000000
   10  C  1 XX    0.008988   0.000000  -0.019936   0.050194  -0.119399
   11  C  1 YY    0.002297   0.000000   0.029584  -0.022370   0.079857
   12  C  1 ZZ   -0.005448   0.000000  -0.004482   0.011611  -0.105031
   13  C  1 XY   -0.114286   0.000000  -0.057372  -0.055898  -0.018448
   14  C  1 XZ    0.000000   0.007889   0.000000   0.000000   0.000000
   15  C  1 YZ    0.000000  -0.013974   0.000000   0.000000   0.000000
   16  C  2  S    0.011252   0.000000  -0.026634  -0.006221  -0.015706
   17  C  2  S    0.174441   0.000000   0.592866   0.538455  -0.426386
   18  C  2  X    0.088527   0.000000   0.513930   0.196202   0.102385
   19  C  2  Y    0.331923   0.000000  -0.646937  -0.339094  -0.026576
   20  C  2  Z    0.000000   0.004434   0.000000   0.000000   0.000000
   21  C  2  S   -0.525490   0.000000  -0.654704  -1.104368   1.033721
   22  C  2  X   -0.250618   0.000000  -1.580888   0.222828  -0.038196
   23  C  2  Y   -1.654029   0.000000   1.550555   1.360437   0.144926
   24  C  2  Z    0.000000  -0.107404   0.000000   0.000000   0.000000
   25  C  2 XX    0.017714   0.000000   0.076558   0.050492  -0.010417
   26  C  2 YY    0.008183   0.000000  -0.042808  -0.012882  -0.061302
   27  C  2 ZZ   -0.002093   0.000000   0.069870   0.034204   0.017218
   28  C  2 XY    0.070028   0.000000   0.115057   0.029449   0.003829
   29  C  2 XZ    0.000000  -0.029978   0.000000   0.000000   0.000000
   30  C  2 YZ    0.000000  -0.098250   0.000000   0.000000   0.000000
   31  C  3  S    0.011842   0.000000   0.009173   0.016494   0.018438
   32  C  3  S   -0.100884   0.000000   0.054950   0.095348  -0.516795
   33  C  3  X   -0.152855   0.000000   0.420800  -0.386473  -0.095299
   34  C  3  Y    0.188333   0.000000  -0.174217   0.310804  -0.184291
   35  C  3  Z    0.000000  -0.849884   0.000000   0.000000   0.000000
   36  C  3  S    0.989896   0.000000  -0.406515  -0.885331   0.825143
   37  C  3  X    0.077411   0.000000  -0.216206   0.437624   0.027544
   38  C  3  Y   -0.663860   0.000000   0.203097  -0.127480   0.504336
   39  C  3  Z    0.000000   1.345121   0.000000   0.000000   0.000000
   40  C  3 XX    0.045042   0.000000  -0.105190   0.156329   0.014186
   41  C  3 YY    0.026219   0.000000   0.042193   0.016105  -0.052385
   42  C  3 ZZ   -0.058673   0.000000   0.072370  -0.154155  -0.033991
   43  C  3 XY    0.041902   0.000000  -0.005221  -0.072123  -0.054499
   44  C  3 XZ    0.000000  -0.057350   0.000000   0.000000   0.000000
   45  C  3 YZ    0.000000   0.198982   0.000000   0.000000   0.000000
   46  H  4  S    0.469556   0.000000   0.118494  -0.010552   0.549571
   47  H  4  S   -1.863934   0.000000  -0.267941   0.667930  -1.139250
   48  H  5  S   -0.395962   0.000000   0.024144  -0.149399   0.552178
   49  H  5  S    1.735708   0.000000   0.005674  -0.349121  -1.347738
   50  H  6  S   -0.045894   0.000000  -0.565516  -0.433688  -0.148271
   51  H  6  S   -0.380142   0.000000   2.117106   1.202751   0.079632
   52  H  7  S   -0.093243  -0.700823   0.214740  -0.290480   0.150478
   53  H  7  S    0.251508   1.442181  -0.329873   0.596819  -0.408515
   54  H  8  S   -0.093243   0.700823   0.214740  -0.290480   0.150478
   55  H  8  S    0.251508  -1.442181  -0.329873   0.596819  -0.408515
   56  H  9  S    0.142130   0.000000  -0.363694   0.810790   0.388400
   57  H  9  S   -0.389131   0.000000   0.728466  -1.002910  -0.474021

                     36         37         38         39         40
                    0.9676     1.1206     1.2464     1.3015     1.4315
                     A'         A'         A'         A'         A'' 
    1  C  1  S   -0.013109  -0.035418   0.006862  -0.010162   0.000000
    2  C  1  S    0.277791  -1.483427   0.326445  -0.287288   0.000000
    3  C  1  X   -0.324208  -0.241953   0.057118   0.069503   0.000000
    4  C  1  Y   -0.160786  -0.012281   0.178030   0.100897   0.000000
    5  C  1  Z    0.000000   0.000000   0.000000   0.000000  -0.124402
    6  C  1  S   -0.445508   5.584382  -1.070846   1.295554   0.000000
    7  C  1  X    0.755112   2.135439  -0.154064  -0.062387   0.000000
    8  C  1  Y    0.274047  -0.561964  -3.109381   0.535453   0.000000
    9  C  1  Z    0.000000   0.000000   0.000000   0.000000   0.061919
   10  C  1 XX    0.049049   0.017266   0.010518   0.057111   0.000000
   11  C  1 YY   -0.059571  -0.197370   0.025408   0.030531   0.000000
   12  C  1 ZZ    0.064637  -0.006597   0.008536  -0.118340   0.000000
   13  C  1 XY    0.029300  -0.037128  -0.176451   0.031916   0.000000
   14  C  1 XZ    0.000000   0.000000   0.000000   0.000000   0.354751
   15  C  1 YZ    0.000000   0.000000   0.000000   0.000000  -0.160439
   16  C  2  S   -0.017730   0.028192  -0.011502   0.057431   0.000000
   17  C  2  S    0.026221   1.220249  -0.520707   0.910422   0.000000
   18  C  2  X   -0.094648  -0.314807   0.044210   0.018566   0.000000
   19  C  2  Y   -0.056510  -0.104452  -0.321837   0.041941   0.000000
   20  C  2  Z    0.000000   0.000000   0.000000   0.000000  -0.004277
   21  C  2  S   -0.279841  -4.707439   1.659119  -4.341706   0.000000
   22  C  2  X    0.381696   2.284644  -0.331237  -0.703830   0.000000
   23  C  2  Y    0.271532   1.346048   3.417992  -2.204426   0.000000
   24  C  2  Z    0.000000   0.000000   0.000000   0.000000  -0.073415
   25  C  2 XX   -0.026849  -0.051422  -0.007781   0.079914   0.000000
   26  C  2 YY   -0.031540   0.179852  -0.006923   0.086295   0.000000
   27  C  2 ZZ    0.036221   0.011609  -0.016692  -0.109097   0.000000
   28  C  2 XY   -0.024810  -0.033707  -0.111614  -0.050229   0.000000
   29  C  2 XZ    0.000000   0.000000   0.000000   0.000000  -0.329986
   30  C  2 YZ    0.000000   0.000000   0.000000   0.000000  -0.449255
   31  C  3  S    0.040909   0.038553  -0.008018  -0.138763   0.000000
   32  C  3  S   -1.155460   0.460390  -0.401780  -1.899382   0.000000
   33  C  3  X   -0.263668  -0.075110   0.382377  -0.033485   0.000000
   34  C  3  Y   -0.362941   0.012469   0.104742   0.109355   0.000000
   35  C  3  Z    0.000000   0.000000   0.000000   0.000000   0.119962
   36  C  3  S    2.301045  -1.594784  -1.230114   6.844341   0.000000
   37  C  3  X    0.605037   0.258431   0.034664  -0.523373   0.000000
   38  C  3  Y    0.651186   0.060870   0.840979  -1.423087   0.000000
   39  C  3  Z    0.000000   0.000000   0.000000   0.000000   0.155077
   40  C  3 XX   -0.049783   0.055497   0.033973  -0.093931   0.000000
   41  C  3 YY   -0.112470   0.022527  -0.190340   0.006852   0.000000
   42  C  3 ZZ    0.017704   0.016260   0.085758  -0.156000   0.000000
   43  C  3 XY   -0.055827   0.046560   0.026661   0.041654   0.000000
   44  C  3 XZ    0.000000   0.000000   0.000000   0.000000   0.508234
   45  C  3 YZ    0.000000   0.000000   0.000000   0.000000   0.271381
   46  H  4  S   -0.301336   0.069607   0.678078  -0.161370   0.000000
   47  H  4  S    0.595908  -0.094062   0.976600  -0.461445   0.000000
   48  H  5  S   -0.285265  -0.298315  -0.659121   0.051373   0.000000
   49  H  5  S    0.731139  -0.450324  -0.820919  -0.251213   0.000000
   50  H  6  S   -0.039382   0.318816   0.601683  -0.001657   0.000000
   51  H  6  S    0.098691   0.463051   0.892252  -0.079592   0.000000
   52  H  7  S    0.536629   0.176280  -0.036400  -0.496770   0.162272
   53  H  7  S   -1.012494   0.266729  -0.277106  -0.547949  -0.030934
   54  H  8  S    0.536629   0.176280  -0.036400  -0.496770  -0.162272
   55  H  8  S   -1.012494   0.266729  -0.277106  -0.547949   0.030934
   56  H  9  S    0.422438   0.071453  -0.057815  -0.523058   0.000000
   57  H  9  S   -1.084067  -0.052665   0.227016  -0.798412   0.000000

                     41         42         43         44         45
                    1.4872     1.7139     1.8109     1.9047     1.9522
                     A''        A''        A'         A'         A'  
    1  C  1  S    0.000000   0.000000  -0.015285   0.000050  -0.023944
    2  C  1  S    0.000000   0.000000   0.108205   0.003510  -0.177830
    3  C  1  X    0.000000   0.000000   0.243358  -0.138870  -0.184330
    4  C  1  Y    0.000000   0.000000   0.096402   0.169607  -0.148345
    5  C  1  Z    0.126029   0.021278   0.000000   0.000000   0.000000
    6  C  1  S    0.000000   0.000000   1.377746  -0.771848  -0.086893
    7  C  1  X    0.000000   0.000000   0.274151  -0.263932  -0.214234
    8  C  1  Y    0.000000   0.000000   0.533577  -0.479108  -0.467797
    9  C  1  Z   -0.038017  -0.060982   0.000000   0.000000   0.000000
   10  C  1 XX    0.000000   0.000000  -0.032888   0.043453   0.032138
   11  C  1 YY    0.000000   0.000000   0.170207   0.098731   0.479962
   12  C  1 ZZ    0.000000   0.000000  -0.077722  -0.165207  -0.595994
   13  C  1 XY    0.000000   0.000000  -0.160971  -0.398040   0.272880
   14  C  1 XZ   -0.450674  -0.217654   0.000000   0.000000   0.000000
   15  C  1 YZ   -0.340208   0.884540   0.000000   0.000000   0.000000
   16  C  2  S    0.000000   0.000000   0.007243  -0.015879  -0.044364
   17  C  2  S    0.000000   0.000000   0.014626  -0.583898  -0.441558
   18  C  2  X    0.000000   0.000000  -0.063484  -0.126931   0.061244
   19  C  2  Y    0.000000   0.000000  -0.001694  -0.160519  -0.182401
   20  C  2  Z    0.149097   0.041350   0.000000   0.000000   0.000000
   21  C  2  S    0.000000   0.000000  -0.450349   1.516783   1.755790
   22  C  2  X    0.000000   0.000000   1.661859  -0.472088  -0.127153
   23  C  2  Y    0.000000   0.000000  -0.772297   1.396867   0.827859
   24  C  2  Z    0.020421   0.158883   0.000000   0.000000   0.000000
   25  C  2 XX    0.000000   0.000000  -0.273862  -0.018337   0.227199
   26  C  2 YY    0.000000   0.000000   0.439152   0.200350   0.308249
   27  C  2 ZZ    0.000000   0.000000  -0.179725  -0.221690  -0.575636
   28  C  2 XY    0.000000   0.000000   0.010236   0.532651  -0.344295
   29  C  2 XZ    0.519817   0.115270   0.000000   0.000000   0.000000
   30  C  2 YZ   -0.415598  -0.083021   0.000000   0.000000   0.000000
   31  C  3  S    0.000000   0.000000   0.017118   0.041007   0.027744
   32  C  3  S    0.000000   0.000000  -0.027989  -0.152052   0.408620
   33  C  3  X    0.000000   0.000000   0.115643   0.100278   0.015110
   34  C  3  Y    0.000000   0.000000   0.029305   0.256365  -0.009233
   35  C  3  Z    0.038313   0.067284   0.000000   0.000000   0.000000
   36  C  3  S    0.000000   0.000000  -0.100394  -1.089835  -1.646712
   37  C  3  X    0.000000   0.000000  -0.584037   0.374956   0.570303
   38  C  3  Y    0.000000   0.000000   0.237903   0.046455   0.293369
   39  C  3  Z   -0.173335  -0.249389   0.000000   0.000000   0.000000
   40  C  3 XX    0.000000   0.000000   0.260942  -0.240783   0.132448
   41  C  3 YY    0.000000   0.000000  -0.479573   0.561593   0.131409
   42  C  3 ZZ    0.000000   0.000000   0.193705  -0.337045  -0.304179
   43  C  3 XY    0.000000   0.000000   0.691394   0.068717  -0.148053
   44  C  3 XZ    0.251192   0.347010   0.000000   0.000000   0.000000
   45  C  3 YZ    0.024914   0.192309   0.000000   0.000000   0.000000
   46  H  4  S    0.000000   0.000000  -0.325620  -0.309615  -0.008052
   47  H  4  S    0.000000   0.000000  -0.161252   0.316163   0.089314
   48  H  5  S    0.000000   0.000000   0.058384   0.154650  -0.558404
   49  H  5  S    0.000000   0.000000   0.097338  -0.184670  -0.086726
   50  H  6  S    0.000000   0.000000  -0.456916   0.426645  -0.428618
   51  H  6  S    0.000000   0.000000  -0.612083   0.313155   0.194505
   52  H  7  S   -0.017792  -0.013259   0.100432   0.206762   0.220641
   53  H  7  S   -0.132933  -0.098424  -0.109567   0.004346   0.141475
   54  H  8  S    0.017792   0.013259   0.100432   0.206762   0.220641
   55  H  8  S    0.132933   0.098424  -0.109567   0.004346   0.141475
   56  H  9  S    0.000000   0.000000   0.089355   0.230047  -0.075237
   57  H  9  S    0.000000   0.000000   0.167181  -0.105524  -0.015070

                     46         47         48         49         50
                    2.1330     2.1494     2.1927     2.2183     2.2845
                     A''        A'         A'         A''        A'  
    1  C  1  S    0.000000  -0.039564  -0.025069   0.000000  -0.017983
    2  C  1  S    0.000000  -0.380178  -0.199817   0.000000  -0.099382
    3  C  1  X    0.000000  -0.176798  -0.001597   0.000000  -0.079109
    4  C  1  Y    0.000000   0.005200   0.016010   0.000000   0.045445
    5  C  1  Z    0.006888   0.000000   0.000000  -0.029340   0.000000
    6  C  1  S    0.000000   1.058656   1.403988   0.000000   0.053098
    7  C  1  X    0.000000   0.664378   0.096219   0.000000   0.107648
    8  C  1  Y    0.000000   0.121666   0.101571   0.000000   0.369764
    9  C  1  Z   -0.114013   0.000000   0.000000  -0.214326   0.000000
   10  C  1 XX    0.000000   0.637635  -0.211987   0.000000   0.204252
   11  C  1 YY    0.000000  -0.368342   0.791891   0.000000  -0.029808
   12  C  1 ZZ    0.000000  -0.468014  -0.517240   0.000000  -0.242527
   13  C  1 XY    0.000000  -0.019265  -0.211169   0.000000  -0.609715
   14  C  1 XZ   -0.044104   0.000000   0.000000  -0.580030   0.000000
   15  C  1 YZ   -0.224798   0.000000   0.000000  -0.180455   0.000000
   16  C  2  S    0.000000  -0.023650   0.018084   0.000000  -0.024786
   17  C  2  S    0.000000  -0.280876   0.512574   0.000000   0.065855
   18  C  2  X    0.000000   0.302082  -0.127778   0.000000   0.203844
   19  C  2  Y    0.000000   0.086801   0.184401   0.000000   0.313917
   20  C  2  Z   -0.023865   0.000000   0.000000   0.118766   0.000000
   21  C  2  S    0.000000  -0.023339  -1.027578   0.000000   0.380973
   22  C  2  X    0.000000   0.338693   0.712230   0.000000  -0.168848
   23  C  2  Y    0.000000   0.025371   0.041218   0.000000   0.168990
   24  C  2  Z    0.415281   0.000000   0.000000   0.199217   0.000000
   25  C  2 XX    0.000000   0.438599  -0.184016   0.000000   0.085478
   26  C  2 YY    0.000000  -0.398072  -0.096225   0.000000  -0.096454
   27  C  2 ZZ    0.000000  -0.276605   0.369043   0.000000  -0.021070
   28  C  2 XY    0.000000   0.121986   0.114134   0.000000   0.080585
   29  C  2 XZ    0.039069   0.000000   0.000000  -0.406667   0.000000
   30  C  2 YZ    0.740238   0.000000   0.000000   0.294679   0.000000
   31  C  3  S    0.000000   0.009835  -0.000710   0.000000   0.019978
   32  C  3  S    0.000000   0.206076   0.150214   0.000000   0.149149
   33  C  3  X    0.000000  -0.107962  -0.094132   0.000000   0.061398
   34  C  3  Y    0.000000   0.004176   0.016563   0.000000   0.005003
   35  C  3  Z   -0.064315   0.000000   0.000000   0.107701   0.000000
   36  C  3  S    0.000000  -0.515585  -0.180728   0.000000  -0.495131
   37  C  3  X    0.000000  -0.132260  -0.116881   0.000000   0.680835
   38  C  3  Y    0.000000   0.348518   0.320308   0.000000   0.142354
   39  C  3  Z   -0.742437   0.000000   0.000000   0.173341   0.000000
   40  C  3 XX    0.000000  -0.276503  -0.426035   0.000000   0.802621
   41  C  3 YY    0.000000  -0.219296  -0.142718   0.000000  -0.509481
   42  C  3 ZZ    0.000000   0.485686   0.543270   0.000000  -0.253998
   43  C  3 XY    0.000000   0.253047  -0.223803   0.000000  -0.433454
   44  C  3 XZ    0.787134   0.000000   0.000000  -0.154015   0.000000
   45  C  3 YZ   -0.119084   0.000000   0.000000   0.846319   0.000000
   46  H  4  S    0.000000  -0.048643  -0.512217   0.000000  -0.473138
   47  H  4  S    0.000000  -0.059401  -0.078668   0.000000   0.087431
   48  H  5  S    0.000000   0.093157  -0.373636   0.000000   0.312044
   49  H  5  S    0.000000  -0.036231  -0.013606   0.000000   0.060314
   50  H  6  S    0.000000   0.091149   0.198502   0.000000   0.120779
   51  H  6  S    0.000000  -0.183851  -0.030601   0.000000   0.012688
   52  H  7  S   -0.393986  -0.125577  -0.259150   0.474762   0.206687
   53  H  7  S   -0.146968   0.001018   0.050841  -0.102389   0.000684
   54  H  8  S    0.393986  -0.125577  -0.259150  -0.474762   0.206687
   55  H  8  S    0.146968   0.001018   0.050841   0.102389   0.000684
   56  H  9  S    0.000000   0.348706   0.288060   0.000000  -0.626379
   57  H  9  S    0.000000   0.034207  -0.057807   0.000000  -0.007104

                     51         52         53         54         55
                    2.4905     2.5325     2.7592     2.8616     4.1190
                     A''        A'         A'         A'         A'  
    1  C  1  S    0.000000   0.047896  -0.053834   0.013736  -0.322433
    2  C  1  S    0.000000   0.080724   0.286658  -0.128378   2.202414
    3  C  1  X    0.000000  -0.145604   0.723044  -0.237048   0.086588
    4  C  1  Y    0.000000  -0.021162   0.075262   0.073305   0.017324
    5  C  1  Z    0.121853   0.000000   0.000000   0.000000   0.000000
    6  C  1  S    0.000000  -1.542787   1.833159  -0.314491   0.841912
    7  C  1  X    0.000000  -0.555078   1.148955  -0.116975  -0.151444
    8  C  1  Y    0.000000  -0.161938  -0.105884  -0.452646  -0.138898
    9  C  1  Z    0.188176   0.000000   0.000000   0.000000   0.000000
   10  C  1 XX    0.000000  -0.213395   0.989742  -0.365894  -1.240825
   11  C  1 YY    0.000000  -0.159503  -0.485728   0.239130  -1.290192
   12  C  1 ZZ    0.000000   0.483085  -0.452681   0.124278  -1.246259
   13  C  1 XY    0.000000  -0.341697   0.340717   0.725351  -0.005403
   14  C  1 XZ    0.704076   0.000000   0.000000   0.000000   0.000000
   15  C  1 YZ   -0.003607   0.000000   0.000000   0.000000   0.000000
   16  C  2  S    0.000000  -0.091453   0.033024  -0.065001  -0.306062
   17  C  2  S    0.000000  -0.108105  -0.286720   0.160364   1.994429
   18  C  2  X    0.000000  -0.032866   0.753147  -0.108373  -0.109321
   19  C  2  Y    0.000000   0.200761   0.129757   0.077994  -0.019954
   20  C  2  Z   -0.055339   0.000000   0.000000   0.000000   0.000000
   21  C  2  S    0.000000   2.705577  -1.300006   1.306084   0.853944
   22  C  2  X    0.000000  -0.266070   1.291112   0.142729   0.035124
   23  C  2  Y    0.000000   0.799329   0.606200   0.723680   0.128573
   24  C  2  Z   -0.206949   0.000000   0.000000   0.000000   0.000000
   25  C  2 XX    0.000000   0.131871  -1.138887   0.168518  -1.117517
   26  C  2 YY    0.000000   0.608362   0.763981  -0.001182  -1.158620
   27  C  2 ZZ    0.000000  -0.811225   0.329360  -0.365998  -1.186581
   28  C  2 XY    0.000000  -0.054315   0.128275   1.045061   0.021703
   29  C  2 XZ    0.812224   0.000000   0.000000   0.000000   0.000000
   30  C  2 YZ    0.262413   0.000000   0.000000   0.000000   0.000000
   31  C  3  S    0.000000   0.056525   0.024851   0.051772  -0.156981
   32  C  3  S    0.000000   0.067546  -0.021046  -0.170590   0.934149
   33  C  3  X    0.000000   0.140232   0.082198   0.147545  -0.027909
   34  C  3  Y    0.000000   0.235011   0.134453   0.294511  -0.075608
   35  C  3  Z    0.034132   0.000000   0.000000   0.000000   0.000000
   36  C  3  S    0.000000  -1.565201  -0.651090  -1.021477   0.468197
   37  C  3  X    0.000000   0.311533   0.222294   0.195356   0.079903
   38  C  3  Y    0.000000   0.802332   0.368656   0.507944   0.155473
   39  C  3  Z    0.152581   0.000000   0.000000   0.000000   0.000000
   40  C  3 XX    0.000000  -0.345393  -0.051635   0.421937  -0.597885
   41  C  3 YY    0.000000  -0.174629  -0.064390  -0.502334  -0.475546
   42  C  3 ZZ    0.000000   0.631747   0.139733   0.240766  -0.624650
   43  C  3 XY    0.000000  -0.571632  -0.354132  -0.264005   0.060884
   44  C  3 XZ   -0.091928   0.000000   0.000000   0.000000   0.000000
   45  C  3 YZ    0.654004   0.000000   0.000000   0.000000   0.000000
   46  H  4  S    0.000000   0.044381   0.120375   0.329998   0.143650
   47  H  4  S    0.000000   0.116777   0.121729   0.066132  -0.247365
   48  H  5  S    0.000000   0.320374  -0.077309  -0.350424   0.123249
   49  H  5  S    0.000000  -0.035974   0.057166  -0.009486  -0.352454
   50  H  6  S    0.000000  -0.398445   0.011562   0.351681   0.132166
   51  H  6  S    0.000000   0.232588   0.028699  -0.099957  -0.211871
   52  H  7  S    0.322234  -0.184882  -0.019842   0.001929   0.068918
   53  H  7  S   -0.082034   0.060944   0.004735  -0.012230  -0.206915
   54  H  8  S   -0.322234  -0.184882  -0.019842   0.001929   0.068918
   55  H  8  S    0.082034   0.060944   0.004735  -0.012230  -0.206915
   56  H  9  S    0.000000   0.243499  -0.010095  -0.146353   0.055230
   57  H  9  S    0.000000   0.012717  -0.106609   0.130768  -0.155928

                     56         57
                    4.1998     4.4020
                     A'         A'  
    1  C  1  S    0.303066   0.170748
    2  C  1  S   -1.782802  -0.997990
    3  C  1  X    0.213034   0.283057
    4  C  1  Y    0.042261   0.003801
    5  C  1  Z    0.000000   0.000000
    6  C  1  S   -1.668704  -1.203379
    7  C  1  X   -0.209479  -0.121050
    8  C  1  Y   -0.153283  -0.034815
    9  C  1  Z    0.000000   0.000000
   10  C  1 XX    1.375424   1.004929
   11  C  1 YY    1.119115   0.657585
   12  C  1 ZZ    1.148600   0.594061
   13  C  1 XY    0.040600  -0.012712
   14  C  1 XZ    0.000000   0.000000
   15  C  1 YZ    0.000000   0.000000
   16  C  2  S   -0.161445  -0.331858
   17  C  2  S    0.843883   2.009185
   18  C  2  X    0.284722   0.181607
   19  C  2  Y    0.068219  -0.110564
   20  C  2  Z    0.000000   0.000000
   21  C  2  S    0.833953   2.098012
   22  C  2  X   -0.366824   0.000122
   23  C  2  Y   -0.044360   0.205638
   24  C  2  Z    0.000000   0.000000
   25  C  2 XX   -0.842360  -1.612239
   26  C  2 YY   -0.461173  -1.453640
   27  C  2 ZZ   -0.584374  -1.224037
   28  C  2 XY    0.077547  -0.204675
   29  C  2 XZ    0.000000   0.000000
   30  C  2 YZ    0.000000   0.000000
   31  C  3  S   -0.358292   0.306336
   32  C  3  S    2.034688  -1.787212
   33  C  3  X    0.019830  -0.063026
   34  C  3  Y    0.005085  -0.151745
   35  C  3  Z    0.000000   0.000000
   36  C  3  S    1.730335  -2.092071
   37  C  3  X    0.012959   0.064338
   38  C  3  Y    0.029211   0.184917
   39  C  3  Z    0.000000   0.000000
   40  C  3 XX   -1.343601   1.208709
   41  C  3 YY   -1.312927   1.413544
   42  C  3 ZZ   -1.386465   1.119350
   43  C  3 XY    0.010189   0.140552
   44  C  3 XZ    0.000000   0.000000
   45  C  3 YZ    0.000000   0.000000
   46  H  4  S   -0.058909  -0.069662
   47  H  4  S    0.328488   0.225749
   48  H  5  S   -0.101225  -0.047592
   49  H  5  S    0.217826   0.204887
   50  H  6  S    0.079439   0.073754
   51  H  6  S   -0.101606  -0.324117
   52  H  7  S    0.094793  -0.028456
   53  H  7  S   -0.392518   0.290426
   54  H  8  S    0.094793  -0.028456
   55  H  8  S   -0.392518   0.290426
   56  H  9  S    0.082147  -0.042547
   57  H  9  S   -0.344392   0.361667
 ...... END OF RHF CALCULATION ......
 STEP CPU TIME =     6.39 TOTAL CPU TIME =          6.4 (      0.1 MIN)
 TOTAL WALL CLOCK TIME=          6.5 SECONDS, CPU UTILIZATION IS    98.47%

     ---------------------------------------------------------------------
     PROPERTIES FOR THE B3LYP    DFT FUNCTIONAL (RHF  TYPE) DENSITY MATRIX
     ---------------------------------------------------------------------

          -----------------
          ENERGY COMPONENTS
          -----------------

         WAVEFUNCTION NORMALIZATION =       1.0000000000

                ONE ELECTRON ENERGY =    -297.3876284520
                TWO ELECTRON ENERGY =     108.6124404592
           NUCLEAR REPULSION ENERGY =      70.9591338501
                                      ------------------
                       TOTAL ENERGY =    -117.8160541426

 ELECTRON-ELECTRON POTENTIAL ENERGY =     108.6124404592
  NUCLEUS-ELECTRON POTENTIAL ENERGY =    -414.1309117235
   NUCLEUS-NUCLEUS POTENTIAL ENERGY =      70.9591338501
                                      ------------------
             TOTAL POTENTIAL ENERGY =    -234.5593374141
               TOTAL KINETIC ENERGY =     116.7432832715
                 VIRIAL RATIO (V/T) =       2.0091891443

          ---------------------------------------
          MULLIKEN AND LOWDIN POPULATION ANALYSES
          ---------------------------------------

     ATOMIC MULLIKEN POPULATION IN EACH MOLECULAR ORBITAL

                      1          2          3          4          5

                  2.000000   2.000000   2.000000   2.000000   2.000000

    1             0.003356   0.000034   1.995833   0.483906   0.572598
    2             1.994823   0.001652   0.003344   0.759065   0.276817
    3             0.001449   1.996705   0.000008   0.545940   0.709693
    4            -0.000014   0.000001   0.000412   0.028835   0.057542
    5             0.000010  -0.000000   0.000405   0.024119   0.084536
    6             0.000351  -0.000002  -0.000002   0.047950   0.003555
    7             0.000015   0.000535   0.000000   0.036190   0.092599
    8             0.000015   0.000535   0.000000   0.036190   0.092599
    9            -0.000004   0.000540  -0.000000   0.037805   0.110059

                      6          7          8          9         10

                  2.000000   2.000000   2.000000   2.000000   2.000000

    1             0.481963   0.574796   0.567255   0.035351   0.317010
    2             0.579088   0.397836   0.395533   0.159764   0.265470
    3             0.244694   0.369164   0.471985   1.029909   0.659108
    4             0.197262   0.017208   0.317825   0.000000   0.000829
    5             0.090355   0.317332   0.009530   0.000000   0.147282
    6             0.275069   0.145119   0.008353   0.000000   0.052713
    7             0.059247   0.000604   0.096805   0.387489   0.041858
    8             0.059247   0.000604   0.096805   0.387489   0.041858
    9             0.013076   0.177337   0.035911   0.000000   0.473871

                     11         12

                  2.000000   2.000000

    1             0.287183   1.004423
    2             0.413225   0.818363
[...]
               TOTAL  0.19490487 14.95850386 12.38644913  0.65263149  0.16952351

                            6           7           8           9          10
       FREQUENCY:         0.42       11.70      415.67      591.35      924.47  
        SYMMETRY:         A''         A''         A'          A''         A'  
    REDUCED MASS:      4.68553     1.61197     1.98984     1.30981     2.04111
    IR INTENSITY:      0.00000     0.00051     0.01004     0.27308     0.01103

  1   C            X  0.07999932  0.00000619 -0.06484310 -0.00000194  0.06571707
                   Y  0.07824252  0.00002078 -0.09797675 -0.00000405  0.09222490
                   Z  0.10871493 -0.02506063 -0.00000287  0.03993409  0.00001836
  2   C            X  0.08004022  0.00000486 -0.07680351 -0.00000348  0.02149884
                   Y  0.07784502  0.00003513  0.11414414  0.00000160  0.09701054
                   Z  0.10713123 -0.12179241  0.00000504 -0.13826312 -0.00000296
  3   C            X  0.08043387 -0.00000919  0.10813885 -0.00000061 -0.07022030
                   Y  0.07762928  0.00004308  0.02170476 -0.00000150 -0.13574231
                   Z  0.10308228  0.13650731 -0.00000032  0.01622264 -0.00000503
  4   H            X  0.08026188 -0.00000321 -0.29550343 -0.00001179 -0.26160444
                   Y  0.07843925  0.00001364 -0.27436684 -0.00001170 -0.16303410
                   Z  0.10713731  0.25615005 -0.00000121 -0.33633061 -0.00005820
  5   H            X  0.07971581  0.00001673  0.19000124  0.00000802  0.48326441
                   Y  0.07838442  0.00001556 -0.22665750 -0.00000934 -0.11227574
                   Z  0.11165625 -0.22337397 -0.00000960  0.59296882 -0.00009383
  6   H            X  0.07977026  0.00001459 -0.06441102 -0.00000342 -0.09462510
                   Y  0.07766106  0.00004166  0.11897292  0.00000163  0.02557153
                   Z  0.10885162 -0.40727344  0.00000078  0.31257788  0.00000954
  7   H            X  0.07973557 -0.08398033  0.24726564  0.14552979 -0.13144777
                   Y  0.07548274  0.22105445  0.07687085  0.19771909 -0.15525348
                   Z  0.10181048  0.31070002 -0.00197006  0.11078375  0.00499864
  8   H            X  0.08148542  0.08394908  0.24730172 -0.14552409 -0.13146737
                   Y  0.07991236 -0.22097347  0.07687244 -0.19771945 -0.15528460
                   Z  0.10181875  0.31069995  0.00197798  0.11078389 -0.00499220
  9   H            X  0.08038807 -0.00000756  0.07435871 -0.00000146 -0.06646897
                   Y  0.07730283  0.00005467 -0.22276883 -0.00000759 -0.07650512
                   Z  0.10238752 -0.00452534 -0.00002497  0.18700667  0.00001357

 TRANS. SAYVETZ    X  3.37080461  0.00001156  0.00004206 -0.00007535  0.00001472
                   Y  3.27544025  0.00139600 -0.00014094 -0.00007501  0.00015337
                   Z  4.46576168  0.12012504 -0.00000508  0.00016486  0.00000102
               TOTAL  6.48335253  0.12013315  0.00014717  0.00019617  0.00015407

   ROT. SAYVETZ    X -0.16291099  8.58028257 -0.00000941  0.00537206  0.00000053
                   Y  0.17233057 -2.73188362  0.00002248 -0.01221590 -0.00000356
                   Z -0.03526035  0.00127128 -0.02892626  0.00008487 -0.00316966
               TOTAL  0.23975218  9.00468981  0.02892627  0.01334521  0.00316966

                           11          12          13          14          15
       FREQUENCY:       931.02      981.56     1023.72     1067.27     1184.46  
        SYMMETRY:         A''         A'          A''         A''         A'  
    REDUCED MASS:      1.33314     1.32690     1.05184     1.47879     1.73157
    IR INTENSITY:      0.72747     0.01364     0.40446     0.00235     0.13838

  1   C            X  0.00000857 -0.05642268 -0.00000154 -0.00000109 -0.01570427
                   Y  0.00001264  0.02908164 -0.00000191 -0.00000157 -0.07635137
                   Z -0.14317677  0.00000060 -0.01074936 -0.02234890 -0.00000008
  2   C            X  0.00000334 -0.00363588 -0.00000132 -0.00000134 -0.01837699
                   Y  0.00001275 -0.05658183 -0.00000276 -0.00000272  0.13723601
                   Z  0.03652279 -0.00000048 -0.02835898  0.12302412  0.00000071
  3   C            X -0.00000863  0.11795520  0.00000146  0.00000072  0.05783010
                   Y -0.00001773  0.02680707  0.00000275  0.00000255 -0.09712063
                   Z  0.01912732  0.00000076 -0.05372812 -0.11549415 -0.00000122
  4   H            X -0.00003363 -0.27754190 -0.00000073 -0.00000160  0.23996390
                   Y -0.00002021 -0.13855404 -0.00000131 -0.00000204  0.12753093
                   Z  0.54470455 -0.00000595  0.54142681 -0.04597923  0.00000010
  5   H            X  0.00006315  0.14226156 -0.00000527 -0.00000335 -0.31203036
                   Y -0.00001399 -0.07526861 -0.00000041 -0.00000084  0.07608283
                   Z  0.64067382  0.00000067 -0.32101331  0.05169511 -0.00000077
  6   H            X -0.00001252 -0.24068708 -0.00000178 -0.00000216  0.20148842
                   Y  0.00000295 -0.21799921 -0.00000318 -0.00000334  0.28690435
                   Z -0.06121361 -0.00000223  0.66798136 -0.34114816  0.00000241
  7   H            X -0.03645012 -0.25293731  0.08813715  0.17377724 -0.25378073
                   Y -0.07744123 -0.06610001  0.18979153  0.43051020 -0.14535747
                   Z -0.02293803  0.03940213  0.05796611  0.13489249  0.05337068
  8   H            X  0.03641309 -0.25293486 -0.08813328 -0.17377116 -0.25378461
                   Y  0.07739960 -0.06609582 -0.18978577 -0.43050411 -0.14536948
                   Z -0.02293965 -0.03940300  0.05796623  0.13489314 -0.05336626
  9   H            X -0.00000777  0.19247038  0.00000159  0.00000050  0.09539670
                   Y -0.00000720  0.57213289  0.00000291  0.00000025  0.23174820
                   Z -0.03611026 -0.00000227  0.10112188  0.24213035  0.00000034

 TRANS. SAYVETZ    X  0.00001132 -0.00000377 -0.00001923 -0.00002097  0.00002690
                   Y  0.00001122 -0.00013876 -0.00001924 -0.00002075  0.00008437
                   Z  0.00001190 -0.00000019  0.00006174  0.00003748 -0.00000047
               TOTAL  0.00001989  0.00013881  0.00006747  0.00004770  0.00008855

   ROT. SAYVETZ    X  0.00350493 -0.00000004 -0.00129465  0.00237717 -0.00000100
                   Y -0.00200796  0.00000034 -0.00483160 -0.00272244  0.00000142
                   Z -0.00001312 -0.00007093  0.00002177  0.00002371  0.00006491
               TOTAL  0.00403938  0.00007093  0.00500210  0.00361430  0.00006494

                           16          17          18          19          20
       FREQUENCY:      1344.30     1433.68     1471.32     1520.27     1523.51  
        SYMMETRY:         A'          A'          A'          A'          A'' 
    REDUCED MASS:      1.24609     1.18246     1.22188     1.05084     1.04406
    IR INTENSITY:      0.01491     0.02227     0.04342     0.11040     0.12198

  1   C            X -0.07935961  0.00217340 -0.03024330 -0.01763249 -0.00000043
                   Y  0.06266128 -0.00280151  0.01458808 -0.00822034 -0.00000086
                   Z -0.00000000 -0.00000000  0.00000000 -0.00000008  0.00189486
  2   C            X  0.04133809 -0.03627651 -0.09294464 -0.00038353 -0.00000133
                   Y -0.07016675 -0.00309911 -0.05001311  0.01931519  0.00000060
                   Z  0.00000006  0.00000003  0.00000004  0.00000078 -0.01625895
  3   C            X  0.00182688 -0.03810697  0.04166477 -0.05446790 -0.00000228
                   Y -0.02313111 -0.10317596  0.04397406  0.00235743  0.00000013
                   Z -0.00000008  0.00000000 -0.00000001  0.00000250 -0.05375310
  4   H            X -0.35626167  0.18342709  0.41289797  0.05365860  0.00000257
                   Y -0.14217393  0.12245446  0.32952641  0.04523585  0.00000123
                   Z -0.00000007  0.00000003 -0.00000008 -0.00000003 -0.00464708
  5   H            X -0.00932714  0.18694902  0.56481768  0.02653815  0.00000013
                   Y  0.01611164 -0.08533886 -0.26307765 -0.02982012 -0.00000127
                   Z  0.00000002 -0.00000006 -0.00000009 -0.00000044  0.00978014
  6   H            X  0.70135982 -0.01455996  0.20951221  0.00409682  0.00000145
                   Y  0.36837288  0.01729907  0.15362095  0.02335031  0.00000262
                   Z  0.00000028  0.00000002  0.00000022  0.00000021  0.00379758
  7   H            X  0.03841919  0.22703895 -0.11662072  0.37267881 -0.46811513
                   Y  0.03022353  0.39597676 -0.10541445 -0.33167750 -0.08157828
                   Z  0.02313122  0.24181475 -0.05300183 -0.33634608  0.04812022
  8   H            X  0.03841866  0.22703824 -0.11662165  0.37263468  0.46814996
                   Y  0.03022239  0.39597652 -0.10541534 -0.33168609  0.08154702
                   Z -0.02313083 -0.24181484  0.05300207  0.33634203  0.04815172
  9   H            X  0.01835744  0.04990198  0.01671531  0.03343633  0.00000208
                   Y  0.06200135  0.45249203 -0.11115441  0.46440194  0.00002325
                   Z -0.00000035 -0.00000055 -0.00000069 -0.00003344  0.70588592

 TRANS. SAYVETZ    X  0.00000300  0.00000226  0.00001853 -0.00001036 -0.00000709
                   Y -0.00002690  0.00010454 -0.00012356 -0.00002187 -0.00000705
                   Z -0.00000007 -0.00000032 -0.00000003  0.00000031  0.00002894
               TOTAL  0.00002707  0.00010457  0.00012494  0.00002420  0.00003062

   ROT. SAYVETZ    X -0.00000040 -0.00000065  0.00000041  0.00000069 -0.00269857
                   Y  0.00000079  0.00000067 -0.00000019 -0.00000062  0.00140901
                   Z  0.00127586 -0.00174760 -0.00045251  0.00197432  0.00000846
               TOTAL  0.00127586  0.00174760  0.00045251  0.00197432  0.00304428

                           21          22          23          24          25
       FREQUENCY:      1730.50     3043.25     3095.99     3118.62     3147.05  
        SYMMETRY:         A'          A'          A''         A'          A'  
    REDUCED MASS:      4.35465     1.03729     1.10116     1.09915     1.06510
    IR INTENSITY:      0.18841     0.52455     0.52297     0.35010     0.68873

  1   C            X -0.17523890 -0.00089189  0.00000003  0.00326335 -0.05035076
                   Y -0.02197694  0.00007477  0.00000002  0.00133128 -0.00042308
                   Z -0.00000002  0.00000000  0.00041933 -0.00000000 -0.00000000
  2   C            X  0.18918559  0.00086622  0.00000003  0.01275550 -0.02139240
                   Y  0.04849111  0.00000476 -0.00000002 -0.01668442  0.03921008
                   Z  0.00000004  0.00000000 -0.00023970  0.00000000  0.00000000
  3   C            X -0.02129465 -0.01131883 -0.00000015 -0.07708434 -0.01739462
                   Y -0.01146536 -0.04954457  0.00000006  0.03411106  0.00767678
                   Z -0.00000066 -0.00000002 -0.08780992  0.00000019 -0.00000024
  4   H            X  0.11232174  0.00831379 -0.00000064 -0.02160157  0.34047545
                   Y  0.22193217 -0.01351287  0.00000101  0.03280213 -0.46430392
                   Z -0.00000094  0.00000000 -0.00280072  0.00000002 -0.00000008
  5   H            X  0.11676498  0.00385610 -0.00000143 -0.02439320  0.21674803
                   Y -0.18819936  0.01270793 -0.00000301 -0.05270701  0.46481789
                   Z  0.00000024 -0.00000001  0.00091060 -0.00000001  0.00000006
  6   H            X -0.08983624 -0.00724004 -0.00000028 -0.14289647  0.30322638
                   Y -0.16508778  0.00818990  0.00000041  0.21032208 -0.45413306
                   Z  0.00000204 -0.00000000 -0.00436993 -0.00000001  0.00000013
  7   H            X -0.00756386 -0.14824185  0.16402987  0.05149376  0.01221694
                   Y  0.02587124  0.32733438 -0.36974636 -0.14557859 -0.03670393
                   Z  0.01926785 -0.50760428  0.53513495  0.23341263  0.05675824
  8   H            X -0.00755861 -0.14824192 -0.16402964  0.05149443  0.01221636
                   Y  0.02586666  0.32733451  0.36974573 -0.14558017 -0.03670251
                   Z -0.01926518  0.50760449  0.53513389 -0.23341496 -0.05675555
  9   H            X -0.03662334  0.42661885  0.00000150  0.81300489  0.17647434
                   Y -0.09968113 -0.07308853 -0.00000024 -0.12259688 -0.02625666
                   Z  0.00000305 -0.00000000 -0.02057007  0.00000004 -0.00000002

 TRANS. SAYVETZ    X  0.00001381 -0.00001224 -0.00000166  0.00000555  0.00000924
                   Y -0.00011553 -0.00000651 -0.00000173  0.00000898 -0.00004621
                   Z -0.00000045  0.00000000  0.00004014 -0.00000001 -0.00000001
               TOTAL  0.00011636  0.00001387  0.00004022  0.00001055  0.00004713

   ROT. SAYVETZ    X -0.00000042 -0.00000000 -0.00116193 -0.00000002 -0.00000010
                   Y  0.00000144 -0.00000001  0.00040915  0.00000004  0.00000020
                   Z -0.00093012 -0.00064329  0.00000181  0.00027615 -0.00030867
               TOTAL  0.00093012  0.00064329  0.00123187  0.00027615  0.00030867

                           26          27
       FREQUENCY:      3154.09     3229.98  
        SYMMETRY:         A'          A'  
    REDUCED MASS:      1.08729     1.11502
    IR INTENSITY:      0.17404     0.55797

  1   C            X -0.04401784 -0.00277502
                   Y  0.01478791 -0.09257235
                   Z -0.00000000 -0.00000000
  2   C            X  0.04203056  0.00792182
                   Y -0.05001567 -0.01022097
                   Z  0.00000000  0.00000001
  3   C            X  0.01444707  0.00108844
                   Y -0.00401107  0.00044075
                   Z -0.00000015 -0.00000022
  4   H            X  0.32003862 -0.33320006
                   Y -0.42944462  0.42683159
                   Z -0.00000006 -0.00000015
  5   H            X  0.10854008  0.34067152
                   Y  0.23694563  0.67958937
                   Z  0.00000004  0.00000007
  6   H            X -0.40811889 -0.07300849
                   Y  0.60381790  0.10726353
                   Z  0.00000009  0.00000025
  7   H            X -0.00695668  0.00151245
                   Y  0.01852529  0.00201426
                   Z -0.03166189 -0.00173778
  8   H            X -0.00695706  0.00151216
                   Y  0.01852620  0.00201512
                   Z  0.03166354  0.00174015
  9   H            X -0.15489718 -0.01173014
                   Y  0.01883841  0.00098784
                   Z -0.00000002  0.00000001

 TRANS. SAYVETZ    X  0.00000545 -0.00000073
                   Y -0.00000125  0.00000711
                   Z -0.00000001 -0.00000005
               TOTAL  0.00000559  0.00000715

   ROT. SAYVETZ    X -0.00000017 -0.00000009
                   Y  0.00000006  0.00000024
                   Z -0.00044879  0.00006959
               TOTAL  0.00044879  0.00006959

 REFERENCE ON SAYVETZ CONDITIONS - A. SAYVETZ, J.CHEM.PHYS., 7, 383-389(1939).

 NOTE - THE MODES J,K ARE ORTHONORMALIZED ACCORDING TO
 SUM ON I   M(I) * (X(I,J)*X(I,K) + Y(I,J)*Y(I,K) + Z(I,J)*Z(I,K)) = DELTA(J,K)

  MODE FREQ(CM**-1)  SYMMETRY  RED. MASS  IR INTENS.
     1     216.855    A''      1.099670    0.013465
     2       8.160    A'       2.589370    0.001862
     3       5.077    A''      2.237989    0.001397
     4       0.410    A''      4.688607    0.000003
     5       0.079    A'       4.683002    0.000000
     6       0.423    A''      4.685531    0.000000
     7      11.699    A''      1.611967    0.000514
     8     415.673    A'       1.989837    0.010041
     9     591.351    A''      1.309810    0.273084
    10     924.471    A'       2.041109    0.011031
    11     931.015    A''      1.333136    0.727468
    12     981.557    A'       1.326898    0.013636
    13    1023.722    A''      1.051835    0.404458
    14    1067.273    A''      1.478789    0.002355
    15    1184.456    A'       1.731569    0.138385
    16    1344.303    A'       1.246088    0.014908
    17    1433.677    A'       1.182458    0.022267
    18    1471.321    A'       1.221879    0.043421
    19    1520.271    A'       1.050841    0.110402
    20    1523.511    A''      1.044060    0.121976
    21    1730.502    A'       4.354651    0.188413
    22    3043.249    A'       1.037292    0.524554
    23    3095.992    A''      1.101158    0.522972
    24    3118.622    A'       1.099154    0.350097
    25    3147.047    A'       1.065099    0.688731
    26    3154.090    A'       1.087294    0.174036
    27    3229.976    A'       1.115020    0.557972

     -------------------------------
     THERMOCHEMISTRY AT T=  298.15 K
     -------------------------------

 USING IDEAL GAS, RIGID ROTOR, HARMONIC NORMAL MODE APPROXIMATIONS.
 P=  1.01325E+05 PASCAL.
 ALL FREQUENCIES ARE SCALED BY   1.00000
 THE MOMENTS OF INERTIA ARE (IN AMU*BOHR**2)
             38.88372           196.14260           223.79032
 THE ROTATIONAL SYMMETRY NUMBER IS  1.0
 THE ROTATIONAL CONSTANTS ARE (IN GHZ)
     46.37129     9.19274     8.05704
   1 IMAGINARY FREQUENCY VIBRATION(S) IS(ARE) EXCLUDED
     FROM THE FOLLOWING THERMOCHEMICAL ANALYSIS.
      8 -     27 VIBRATIONAL MODES ARE USED IN THERMOCHEMISTRY.
 THE HARMONIC ZERO POINT ENERGY IS (SCALED BY   1.000)
        0.079581 HARTREE/MOLECULE    17466.039515 CM**-1/MOLECULE 
       49.937963 KCAL/MOL              208.940437 KJ/MOL

               Q               LN Q
 ELEC.     1.00000E+00       0.000000
 TRANS.    1.07166E+07      16.187301
 ROT.      1.47888E+04       9.601623
 VIB.      1.29264E+00       0.256685
 TOT.      2.04863E+11      26.045609

              E         H         G         CV        CP        S
           KJ/MOL    KJ/MOL    KJ/MOL   J/MOL-K   J/MOL-K   J/MOL-K
 ELEC.      0.000     0.000     0.000     0.000     0.000     0.000
 TRANS.     3.718     6.197   -40.127    12.472    20.786   155.374
 ROT.       3.718     3.718   -23.802    12.472    12.472    92.303
 VIB.     210.799   210.799   208.304    21.607    21.607     8.368
 TOTAL    218.236   220.715   144.375    46.550    54.864   256.046
 VIB. THERMAL CORRECTION E(T)-E(0) = H(T)-H(0) =      1858.746 J/MOL

              E         H         G         CV        CP        S
         KCAL/MOL  KCAL/MOL  KCAL/MOL CAL/MOL-K CAL/MOL-K CAL/MOL-K
 ELEC.      0.000     0.000     0.000     0.000     0.000     0.000
 TRANS.     0.889     1.481    -9.591     2.981     4.968    37.135
 ROT.       0.889     0.889    -5.689     2.981     2.981    22.061
 VIB.      50.382    50.382    49.786     5.164     5.164     2.000
 TOTAL     52.160    52.752    34.506    11.126    13.113    61.196
 VIB. THERMAL CORRECTION E(T)-E(0) = H(T)-H(0) =       444.251 CAL/MOL
 ......END OF NORMAL COORDINATE ANALYSIS......
 STEP CPU TIME =     0.00 TOTAL CPU TIME =        449.1 (      7.5 MIN)
 TOTAL WALL CLOCK TIME=        453.4 SECONDS, CPU UTILIZATION IS    99.06%
               1075896  WORDS OF DYNAMIC MEMORY USED
 EXECUTION OF GAMESS TERMINATED NORMALLY Sun Oct 30 22:16:52 2022
 DDI: 263640 bytes (0.3 MB / 0 MWords) used by master data server.

 ----------------------------------------
 CPU timing information for all processes
 ========================================
 0: 446.75 + 3.38 = 449.113
 ----------------------------------------
 ddikick.x: exited gracefully.
----- accounting info -----
Files used on the master node chemcompute-node-0.novalocal were:
-rw-r--r--. 1 chemcomp chemcomp      950 Oct 30 22:09 /scratch/141482/483536.F05
-rw-rw-r--. 1 chemcomp chemcomp 65536000 Oct 30 22:16 /scratch/141482/483536.F10
-rw-rw-r--. 1 chemcomp chemcomp  4614952 Oct 30 22:16 /scratch/141482/483536.F22
Sun Oct 30 22:16:55 UTC 2022
0.094u 0.042s 7:36.77 0.0%	0+0k 8+208io 0pf+0w
Finishing Up...
Looking for IR data...
Looking for Raman data...
vibramans not found
Looking for thermodynamics data...
Looking for UV-Vis data...
chemcompute.org
{'UTCtimestamp': '2022-10-30T22:16:57.240618', 'cluster': 'jetstream2', 'clusterJobNumber': '141482', 'status': 'COMPLETE', 'nodeList': 'chemcompute-node-0'}
141482
